 Entering Gaussian System, Link 0=g16
 Input=/home/ehare/Desktop/test/ch4.com
 Output=/home/ehare/Desktop/test/ch4.log
 Initial command:
 /opt/g16/l1.exe "/scratch/Gau-7731.inp" -scrdir="/scratch/"
 Entering Link 1 = /opt/g16/l1.exe PID=      7734.
  
 Copyright (c) 1988,1990,1992,1993,1995,1998,2003,2009,2016,
            Gaussian, Inc.  All Rights Reserved.
  
 This is part of the Gaussian(R) 16 program.  It is based on
 the Gaussian(R) 09 system (copyright 2009, Gaussian, Inc.),
 the Gaussian(R) 03 system (copyright 2003, Gaussian, Inc.),
 the Gaussian(R) 98 system (copyright 1998, Gaussian, Inc.),
 the Gaussian(R) 94 system (copyright 1995, Gaussian, Inc.),
 the Gaussian 92(TM) system (copyright 1992, Gaussian, Inc.),
 the Gaussian 90(TM) system (copyright 1990, Gaussian, Inc.),
 the Gaussian 88(TM) system (copyright 1988, Gaussian, Inc.),
 the Gaussian 86(TM) system (copyright 1986, Carnegie Mellon
 University), and the Gaussian 82(TM) system (copyright 1983,
 Carnegie Mellon University). Gaussian is a federally registered
 trademark of Gaussian, Inc.
  
 This software contains proprietary and confidential information,
 including trade secrets, belonging to Gaussian, Inc.
  
 This software is provided under written license and may be
 used, copied, transmitted, or stored only in accord with that
 written license.
  
 The following legend is applicable only to US Government
 contracts under FAR:
  
                    RESTRICTED RIGHTS LEGEND
  
 Use, reproduction and disclosure by the US Government is
 subject to restrictions as set forth in subparagraphs (a)
 and (c) of the Commercial Computer Software - Restricted
 Rights clause in FAR 52.227-19.
  
 Gaussian, Inc.
 340 Quinnipiac St., Bldg. 40, Wallingford CT 06492
  
  
 ---------------------------------------------------------------
 Warning -- This program may not be used in any manner that
 competes with the business of Gaussian, Inc. or will provide
 assistance to any competitor of Gaussian, Inc.  The licensee
 of this program is prohibited from giving any competitor of
 Gaussian, Inc. access to this program.  By using this program,
 the user acknowledges that Gaussian, Inc. is engaged in the
 business of creating and licensing software in the field of
 computational chemistry and represents and warrants to the
 licensee that it is not a competitor of Gaussian, Inc. and that
 it will not use this program in any manner prohibited above.
 ---------------------------------------------------------------
  

 Cite this work as:
 Gaussian 16, Revision A.03,
 M. J. Frisch, G. W. Trucks, H. B. Schlegel, G. E. Scuseria, 
 M. A. Robb, J. R. Cheeseman, G. Scalmani, V. Barone, 
 G. A. Petersson, H. Nakatsuji, X. Li, M. Caricato, A. V. Marenich, 
 J. Bloino, B. G. Janesko, R. Gomperts, B. Mennucci, H. P. Hratchian, 
 J. V. Ortiz, A. F. Izmaylov, J. L. Sonnenberg, D. Williams-Young, 
 F. Ding, F. Lipparini, F. Egidi, J. Goings, B. Peng, A. Petrone, 
 T. Henderson, D. Ranasinghe, V. G. Zakrzewski, J. Gao, N. Rega, 
 G. Zheng, W. Liang, M. Hada, M. Ehara, K. Toyota, R. Fukuda, 
 J. Hasegawa, M. Ishida, T. Nakajima, Y. Honda, O. Kitao, H. Nakai, 
 T. Vreven, K. Throssell, J. A. Montgomery, Jr., J. E. Peralta, 
 F. Ogliaro, M. J. Bearpark, J. J. Heyd, E. N. Brothers, K. N. Kudin, 
 V. N. Staroverov, T. A. Keith, R. Kobayashi, J. Normand, 
 K. Raghavachari, A. P. Rendell, J. C. Burant, S. S. Iyengar, 
 J. Tomasi, M. Cossi, J. M. Millam, M. Klene, C. Adamo, R. Cammi, 
 J. W. Ochterski, R. L. Martin, K. Morokuma, O. Farkas, 
 J. B. Foresman, and D. J. Fox, Gaussian, Inc., Wallingford CT, 2016.
 
 ******************************************
 Gaussian 16:  EM64L-G16RevA.03 25-Dec-2016
                 4-Jun-2018 
 ******************************************
 %chk=ch4.chk
 -----------------------------------------
 # opt freq b3lyp/6-31+g geom=connectivity
 -----------------------------------------
 1/18=20,19=15,26=3,38=1,57=2/1,3;
 2/9=110,12=2,17=6,18=5,40=1/2;
 3/5=1,6=6,7=10,11=2,25=1,30=1,71=1,74=-5/1,2,3;
 4//1;
 5/5=2,38=5/2;
 6/7=2,8=2,9=2,10=2,28=1/1;
 7//1,2,3,16;
 1/18=20,19=15,26=3/3(2);
 2/9=110/2;
 99//99;
 2/9=110/2;
 3/5=1,6=6,7=10,11=2,25=1,30=1,71=1,74=-5/1,2,3;
 4/5=5,16=3,69=1/1;
 5/5=2,38=5/2;
 7//1,2,3,16;
 1/18=20,19=15,26=3/3(-5);
 2/9=110/2;
 6/7=2,8=2,9=2,10=2,19=2,28=1/1;
 99/9=1/99;
 -------------------
 Title Card Required
 -------------------
 Symbolic Z-matrix:
 Charge =  0 Multiplicity = 1
 C                     0.        0.        0. 
 H                     0.        0.        1.07 
 H                     0.       -1.00881  -0.35667 
 H                    -0.87365   0.5044   -0.35667 
 H                     0.87365   0.5044   -0.35667 
 

 GradGradGradGradGradGradGradGradGradGradGradGradGradGradGradGradGradGrad
 Berny optimization.
 Initialization pass.
                           ----------------------------
                           !    Initial Parameters    !
                           ! (Angstroms and Degrees)  !
 --------------------------                            --------------------------
 ! Name  Definition              Value          Derivative Info.                !
 --------------------------------------------------------------------------------
 ! R1    R(1,2)                  1.07           estimate D2E/DX2                !
 ! R2    R(1,3)                  1.07           estimate D2E/DX2                !
 ! R3    R(1,4)                  1.07           estimate D2E/DX2                !
 ! R4    R(1,5)                  1.07           estimate D2E/DX2                !
 ! A1    A(2,1,3)              109.4712         estimate D2E/DX2                !
 ! A2    A(2,1,4)              109.4712         estimate D2E/DX2                !
 ! A3    A(2,1,5)              109.4712         estimate D2E/DX2                !
 ! A4    A(3,1,4)              109.4712         estimate D2E/DX2                !
 ! A5    A(3,1,5)              109.4712         estimate D2E/DX2                !
 ! A6    A(4,1,5)              109.4712         estimate D2E/DX2                !
 ! D1    D(2,1,4,3)           -120.0            estimate D2E/DX2                !
 ! D2    D(2,1,5,3)            120.0            estimate D2E/DX2                !
 ! D3    D(2,1,5,4)           -120.0            estimate D2E/DX2                !
 ! D4    D(3,1,5,4)            120.0            estimate D2E/DX2                !
 --------------------------------------------------------------------------------
 Trust Radius=3.00D-01 FncErr=1.00D-07 GrdErr=1.00D-06 EigMax=2.50D+02 EigMin=1.00D-04
 Number of steps in this run=     24 maximum allowed number of steps=    100.
 GradGradGradGradGradGradGradGradGradGradGradGradGradGradGradGradGradGrad

                          Input orientation:                          
 ---------------------------------------------------------------------
 Center     Atomic      Atomic             Coordinates (Angstroms)
 Number     Number       Type             X           Y           Z
 ---------------------------------------------------------------------
      1          6           0        0.000000    0.000000    0.000000
      2          1           0        0.000000    0.000000    1.070000
      3          1           0        0.000000   -1.008806   -0.356667
      4          1           0       -0.873651    0.504403   -0.356667
      5          1           0        0.873651    0.504403   -0.356667
 ---------------------------------------------------------------------
                    Distance matrix (angstroms):
                    1          2          3          4          5
     1  C    0.000000
     2  H    1.070000   0.000000
     3  H    1.070000   1.747303   0.000000
     4  H    1.070000   1.747303   1.747303   0.000000
     5  H    1.070000   1.747303   1.747303   1.747303   0.000000
 Stoichiometry    CH4
 Framework group  TD[O(C),4C3(H)]
 Deg. of freedom     1
 Full point group                 TD      NOp  24
 Largest Abelian subgroup         D2      NOp   4
 Largest concise Abelian subgroup D2      NOp   4
                         Standard orientation:                         
 ---------------------------------------------------------------------
 Center     Atomic      Atomic             Coordinates (Angstroms)
 Number     Number       Type             X           Y           Z
 ---------------------------------------------------------------------
      1          6           0        0.000000    0.000000    0.000000
      2          1           0        0.617765    0.617765    0.617765
      3          1           0       -0.617765   -0.617765    0.617765
      4          1           0       -0.617765    0.617765   -0.617765
      5          1           0        0.617765   -0.617765   -0.617765
 ---------------------------------------------------------------------
 Rotational constants (GHZ):         164.2463784         164.2463784         164.2463784
 Standard basis: 6-31+G (6D, 7F)
 There are     6 symmetry adapted cartesian basis functions of A   symmetry.
 There are     5 symmetry adapted cartesian basis functions of B1  symmetry.
 There are     5 symmetry adapted cartesian basis functions of B2  symmetry.
 There are     5 symmetry adapted cartesian basis functions of B3  symmetry.
 There are     6 symmetry adapted basis functions of A   symmetry.
 There are     5 symmetry adapted basis functions of B1  symmetry.
 There are     5 symmetry adapted basis functions of B2  symmetry.
 There are     5 symmetry adapted basis functions of B3  symmetry.
    21 basis functions,    42 primitive gaussians,    21 cartesian basis functions
     5 alpha electrons        5 beta electrons
       nuclear repulsion energy        13.6865185501 Hartrees.
 NAtoms=    5 NActive=    5 NUniq=    2 SFac= 4.00D+00 NAtFMM=   60 NAOKFM=F Big=F
 Integral buffers will be    131072 words long.
 Raffenetti 2 integral format.
 Two-electron integral symmetry is turned on.
 One-electron integrals computed using PRISM.
 NBasis=    21 RedAO= T EigKep=  1.30D-02  NBF=     6     5     5     5
 NBsUse=    21 1.00D-06 EigRej= -1.00D+00 NBFU=     6     5     5     5
 ExpMin= 4.38D-02 ExpMax= 3.05D+03 ExpMxC= 4.57D+02 IAcc=3 IRadAn=         5 AccDes= 0.00D+00
 Harris functional with IExCor=  402 and IRadAn=       5 diagonalized for initial guess.
 HarFok:  IExCor=  402 AccDes= 0.00D+00 IRadAn=         5 IDoV= 1 UseB2=F ITyADJ=14
 ICtDFT=  3500011 ScaDFX=  1.000000  1.000000  1.000000  1.000000
 FoFCou: FMM=F IPFlag=           0 FMFlag=      100000 FMFlg1=           0
         NFxFlg=           0 DoJE=T BraDBF=F KetDBF=T FulRan=T
         wScrn=  0.000000 ICntrl=       500 IOpCl=  0 I1Cent=   200000004 NGrid=           0
         NMat0=    1 NMatS0=      1 NMatT0=    0 NMatD0=    1 NMtDS0=    0 NMtDT0=    0
 Petite list used in FoFCou.
 Initial guess orbital symmetries:
       Occupied  (A1) (A1) (T2) (T2) (T2)
       Virtual   (A1) (T2) (T2) (T2) (T2) (T2) (T2) (A1) (T2) (T2)
                 (T2) (T2) (T2) (T2) (A1) (A1)
 The electronic state of the initial guess is 1-A1.
 Keep R1 ints in memory in symmetry-blocked form, NReq=890432.
 Requested convergence on RMS density matrix=1.00D-08 within 128 cycles.
 Requested convergence on MAX density matrix=1.00D-06.
 Requested convergence on             energy=1.00D-06.
 No special actions if energy rises.
 SCF Done:  E(RB3LYP) =  -40.5114804646     A.U. after    7 cycles
            NFock=  7  Conv=0.92D-09     -V/T= 2.0040

 **********************************************************************

            Population analysis using the SCF density.

 **********************************************************************

 Orbital symmetries:
       Occupied  (A1) (A1) (T2) (T2) (T2)
       Virtual   (A1) (T2) (T2) (T2) (T2) (T2) (T2) (A1) (T2) (T2)
                 (T2) (T2) (T2) (T2) (A1) (A1)
 The electronic state is 1-A1.
 Alpha  occ. eigenvalues --  -10.15560  -0.70564  -0.39927  -0.39927  -0.39927
 Alpha virt. eigenvalues --    0.01797   0.06178   0.06178   0.06178   0.18876
 Alpha virt. eigenvalues --    0.18876   0.18876   0.28477   0.64716   0.64716
 Alpha virt. eigenvalues --    0.64716   1.00751   1.00751   1.00751   1.08082
 Alpha virt. eigenvalues --    1.14878
          Condensed to atoms (all electrons):
               1          2          3          4          5
     1  C    5.242304   0.377927   0.377927   0.377927   0.377927
     2  H    0.377927   0.512885  -0.026438  -0.026438  -0.026438
     3  H    0.377927  -0.026438   0.512885  -0.026438  -0.026438
     4  H    0.377927  -0.026438  -0.026438   0.512885  -0.026438
     5  H    0.377927  -0.026438  -0.026438  -0.026438   0.512885
 Mulliken charges:
               1
     1  C   -0.754012
     2  H    0.188503
     3  H    0.188503
     4  H    0.188503
     5  H    0.188503
 Sum of Mulliken charges =   0.00000
 Mulliken charges with hydrogens summed into heavy atoms:
               1
     1  C    0.000000
 Electronic spatial extent (au):  <R**2>=             35.2558
 Charge=              0.0000 electrons
 Dipole moment (field-independent basis, Debye):
    X=             -0.0000    Y=             -0.0000    Z=              0.0000  Tot=              0.0000
 Quadrupole moment (field-independent basis, Debye-Ang):
   XX=             -8.4745   YY=             -8.4745   ZZ=             -8.4745
   XY=              0.0000   XZ=             -0.0000   YZ=             -0.0000
 Traceless Quadrupole moment (field-independent basis, Debye-Ang):
   XX=              0.0000   YY=             -0.0000   ZZ=              0.0000
   XY=              0.0000   XZ=             -0.0000   YZ=             -0.0000
 Octapole moment (field-independent basis, Debye-Ang**2):
  XXX=              0.0000  YYY=             -0.0000  ZZZ=             -0.0000  XYY=              0.0000
  XXY=             -0.0000  XXZ=             -0.0000  XZZ=              0.0000  YZZ=             -0.0000
  YYZ=              0.0000  XYZ=              0.6264
 Hexadecapole moment (field-independent basis, Debye-Ang**3):
 XXXX=            -16.9147 YYYY=            -16.9147 ZZZZ=            -16.9147 XXXY=             -0.0000
 XXXZ=             -0.0000 YYYX=             -0.0000 YYYZ=             -0.0000 ZZZX=              0.0000
 ZZZY=             -0.0000 XXYY=             -5.2515 XXZZ=             -5.2515 YYZZ=             -5.2515
 XXYZ=             -0.0000 YYXZ=             -0.0000 ZZXY=             -0.0000
 N-N= 1.368651855011D+01 E-N=-1.205944304938D+02  KE= 4.035205188613D+01
 Symmetry A    KE= 3.448946339896D+01
 Symmetry B1   KE= 1.954196162387D+00
 Symmetry B2   KE= 1.954196162387D+00
 Symmetry B3   KE= 1.954196162387D+00
 Calling FoFJK, ICntrl=      2127 FMM=F ISym2X=1 I1Cent= 0 IOpClX= 0 NMat=1 NMatS=1 NMatT=0.
 ***** Axes restored to original set *****
 -------------------------------------------------------------------
 Center     Atomic                   Forces (Hartrees/Bohr)
 Number     Number              X              Y              Z
 -------------------------------------------------------------------
      1        6           0.000000000   -0.000000000   -0.000000000
      2        1          -0.000000000   -0.000000000    0.016909557
      3        1           0.000000000   -0.015942483   -0.005636519
      4        1          -0.013806595    0.007971242   -0.005636519
      5        1           0.013806595    0.007971242   -0.005636519
 -------------------------------------------------------------------
 Cartesian Forces:  Max     0.016909557 RMS     0.008732058

 GradGradGradGradGradGradGradGradGradGradGradGradGradGradGradGradGradGrad
 Berny optimization.
 FormGI is forming the generalized inverse of G from B-inverse, IUseBI=4.
 Internal  Forces:  Max     0.016909557 RMS     0.009038538
 Search for a local minimum.
 Step number   1 out of a maximum of   24
 All quantities printed in internal units (Hartrees-Bohrs-Radians)
 Mixed Optimization -- RFO/linear search
 Second derivative matrix not updated -- first step.
 The second derivative matrix:
                          R1        R2        R3        R4        A1
           R1           0.37230
           R2           0.00000   0.37230
           R3           0.00000   0.00000   0.37230
           R4           0.00000   0.00000   0.00000   0.37230
           A1           0.00000   0.00000   0.00000   0.00000   0.16000
           A2           0.00000   0.00000   0.00000   0.00000   0.00000
           A3           0.00000   0.00000   0.00000   0.00000   0.00000
           A4           0.00000   0.00000   0.00000   0.00000   0.00000
           A5           0.00000   0.00000   0.00000   0.00000   0.00000
           A6           0.00000   0.00000   0.00000   0.00000   0.00000
           D1           0.00000   0.00000   0.00000   0.00000   0.00000
           D2           0.00000   0.00000   0.00000   0.00000   0.00000
           D3           0.00000   0.00000   0.00000   0.00000   0.00000
           D4           0.00000   0.00000   0.00000   0.00000   0.00000
                          A2        A3        A4        A5        A6
           A2           0.16000
           A3           0.00000   0.16000
           A4           0.00000   0.00000   0.16000
           A5           0.00000   0.00000   0.00000   0.16000
           A6           0.00000   0.00000   0.00000   0.00000   0.16000
           D1           0.00000   0.00000   0.00000   0.00000   0.00000
           D2           0.00000   0.00000   0.00000   0.00000   0.00000
           D3           0.00000   0.00000   0.00000   0.00000   0.00000
           D4           0.00000   0.00000   0.00000   0.00000   0.00000
                          D1        D2        D3        D4
           D1           0.00499
           D2           0.00000   0.00499
           D3           0.00000   0.00000   0.00499
           D4           0.00000   0.00000   0.00000   0.00499
 ITU=  0
     Eigenvalues ---    0.05269   0.05891   0.08766   0.16000   0.16000
     Eigenvalues ---    0.37230   0.37230   0.37230   0.37230
 RFO step:  Lambda=-3.04712536D-03 EMin= 5.26881007D-02
 Linear search not attempted -- first point.
 Iteration  1 RMS(Cart)=  0.02408041 RMS(Int)=  0.00000000
 Iteration  2 RMS(Cart)=  0.00000000 RMS(Int)=  0.00000000
 ClnCor:  largest displacement from symmetrization is 1.41D-14 for atom     3.
 Variable       Old X    -DE/DX   Delta X   Delta X   Delta X     New X
                                 (Linear)    (Quad)   (Total)
    R1        2.02201   0.01691   0.00000   0.04505   0.04505   2.06706
    R2        2.02201   0.01691   0.00000   0.04505   0.04505   2.06706
    R3        2.02201   0.01691   0.00000   0.04505   0.04505   2.06706
    R4        2.02201   0.01691   0.00000   0.04505   0.04505   2.06706
    A1        1.91063  -0.00000   0.00000  -0.00000   0.00000   1.91063
    A2        1.91063   0.00000   0.00000  -0.00000   0.00000   1.91063
    A3        1.91063   0.00000   0.00000   0.00000   0.00000   1.91063
    A4        1.91063   0.00000   0.00000   0.00000   0.00000   1.91063
    A5        1.91063   0.00000   0.00000   0.00000   0.00000   1.91063
    A6        1.91063  -0.00000   0.00000  -0.00000   0.00000   1.91063
    D1       -2.09440   0.00000   0.00000   0.00000   0.00000  -2.09440
    D2        2.09440  -0.00000   0.00000  -0.00000   0.00000   2.09440
    D3       -2.09440   0.00000   0.00000   0.00000   0.00000  -2.09440
    D4        2.09440   0.00000   0.00000   0.00000   0.00000   2.09440
         Item               Value     Threshold  Converged?
 Maximum Force            0.016910     0.000450     NO 
 RMS     Force            0.009039     0.000300     NO 
 Maximum Displacement     0.045050     0.001800     NO 
 RMS     Displacement     0.024080     0.001200     NO 
 Predicted change in Energy=-1.535930D-03
 GradGradGradGradGradGradGradGradGradGradGradGradGradGradGradGradGradGrad

                          Input orientation:                          
 ---------------------------------------------------------------------
 Center     Atomic      Atomic             Coordinates (Angstroms)
 Number     Number       Type             X           Y           Z
 ---------------------------------------------------------------------
      1          6           0        0.000000    0.000000    0.000000
      2          1           0       -0.000000   -0.000000    1.093840
      3          1           0       -0.000000   -1.031282   -0.364613
      4          1           0       -0.893116    0.515641   -0.364613
      5          1           0        0.893116    0.515641   -0.364613
 ---------------------------------------------------------------------
                    Distance matrix (angstroms):
                    1          2          3          4          5
     1  C    0.000000
     2  H    1.093840   0.000000
     3  H    1.093840   1.786233   0.000000
     4  H    1.093840   1.786233   1.786233   0.000000
     5  H    1.093840   1.786233   1.786233   1.786233   0.000000
 Stoichiometry    CH4
 Framework group  TD[O(C),4C3(H)]
 Deg. of freedom     1
 Full point group                 TD      NOp  24
 Largest Abelian subgroup         D2      NOp   4
 Largest concise Abelian subgroup D2      NOp   4
                         Standard orientation:                         
 ---------------------------------------------------------------------
 Center     Atomic      Atomic             Coordinates (Angstroms)
 Number     Number       Type             X           Y           Z
 ---------------------------------------------------------------------
      1          6           0        0.000000    0.000000    0.000000
      2          1           0        0.631529    0.631529    0.631529
      3          1           0       -0.631529   -0.631529    0.631529
      4          1           0       -0.631529    0.631529   -0.631529
      5          1           0        0.631529   -0.631529   -0.631529
 ---------------------------------------------------------------------
 Rotational constants (GHZ):         157.1650848         157.1650848         157.1650848
 Standard basis: 6-31+G (6D, 7F)
 There are     6 symmetry adapted cartesian basis functions of A   symmetry.
 There are     5 symmetry adapted cartesian basis functions of B1  symmetry.
 There are     5 symmetry adapted cartesian basis functions of B2  symmetry.
 There are     5 symmetry adapted cartesian basis functions of B3  symmetry.
 There are     6 symmetry adapted basis functions of A   symmetry.
 There are     5 symmetry adapted basis functions of B1  symmetry.
 There are     5 symmetry adapted basis functions of B2  symmetry.
 There are     5 symmetry adapted basis functions of B3  symmetry.
    21 basis functions,    42 primitive gaussians,    21 cartesian basis functions
     5 alpha electrons        5 beta electrons
       nuclear repulsion energy        13.3882287778 Hartrees.
 NAtoms=    5 NActive=    5 NUniq=    2 SFac= 4.00D+00 NAtFMM=   60 NAOKFM=F Big=F
 Integral buffers will be    131072 words long.
 Raffenetti 2 integral format.
 Two-electron integral symmetry is turned on.
 One-electron integrals computed using PRISM.
 NBasis=    21 RedAO= T EigKep=  1.42D-02  NBF=     6     5     5     5
 NBsUse=    21 1.00D-06 EigRej= -1.00D+00 NBFU=     6     5     5     5
 Initial guess from the checkpoint file:  "ch4.chk"
 B after Tr=     0.000000    0.000000    0.000000
         Rot=    1.000000   -0.000000   -0.000000    0.000000 Ang=   0.00 deg.
 Initial guess orbital symmetries:
       Occupied  (A1) (A1) (T2) (T2) (T2)
       Virtual   (A1) (T2) (T2) (T2) (T2) (T2) (T2) (A1) (T2) (T2)
                 (T2) (T2) (T2) (T2) (A1) (A1)
 ExpMin= 4.38D-02 ExpMax= 3.05D+03 ExpMxC= 4.57D+02 IAcc=2 IRadAn=         4 AccDes= 0.00D+00
 Harris functional with IExCor=  402 and IRadAn=       4 diagonalized for initial guess.
 HarFok:  IExCor=  402 AccDes= 0.00D+00 IRadAn=         4 IDoV= 1 UseB2=F ITyADJ=14
 ICtDFT=  3500011 ScaDFX=  1.000000  1.000000  1.000000  1.000000
 FoFCou: FMM=F IPFlag=           0 FMFlag=      100000 FMFlg1=           0
         NFxFlg=           0 DoJE=T BraDBF=F KetDBF=T FulRan=T
         wScrn=  0.000000 ICntrl=       500 IOpCl=  0 I1Cent=   200000004 NGrid=           0
         NMat0=    1 NMatS0=      1 NMatT0=    0 NMatD0=    1 NMtDS0=    0 NMtDT0=    0
 Petite list used in FoFCou.
 Keep R1 ints in memory in symmetry-blocked form, NReq=890432.
 Requested convergence on RMS density matrix=1.00D-08 within 128 cycles.
 Requested convergence on MAX density matrix=1.00D-06.
 Requested convergence on             energy=1.00D-06.
 No special actions if energy rises.
 SCF Done:  E(RB3LYP) =  -40.5129668991     A.U. after    6 cycles
            NFock=  6  Conv=0.24D-08     -V/T= 2.0072
 Calling FoFJK, ICntrl=      2127 FMM=F ISym2X=1 I1Cent= 0 IOpClX= 0 NMat=1 NMatS=1 NMatT=0.
 ***** Axes restored to original set *****
 -------------------------------------------------------------------
 Center     Atomic                   Forces (Hartrees/Bohr)
 Number     Number              X              Y              Z
 -------------------------------------------------------------------
      1        6           0.000000000   -0.000000000   -0.000000000
      2        1           0.000000000    0.000000000   -0.000040470
      3        1          -0.000000000    0.000038155    0.000013490
      4        1           0.000033043   -0.000019078    0.000013490
      5        1          -0.000033043   -0.000019078    0.000013490
 -------------------------------------------------------------------
 Cartesian Forces:  Max     0.000040470 RMS     0.000020898

 GradGradGradGradGradGradGradGradGradGradGradGradGradGradGradGradGradGrad
 Berny optimization.
 Using GEDIIS/GDIIS optimizer.
 FormGI is forming the generalized inverse of G from B-inverse, IUseBI=4.
 Internal  Forces:  Max     0.000040470 RMS     0.000021632
 Search for a local minimum.
 Step number   2 out of a maximum of   24
 All quantities printed in internal units (Hartrees-Bohrs-Radians)
 Mixed Optimization -- En-DIIS/RFO-DIIS
 Update second derivatives using D2CorX and points    1    2
 DE= -1.49D-03 DEPred=-1.54D-03 R= 9.68D-01
 TightC=F SS=  1.41D+00  RLast= 9.01D-02 DXNew= 5.0454D-01 2.7030D-01
 Trust test= 9.68D-01 RLast= 9.01D-02 DXMaxT set to 3.00D-01
 The second derivative matrix:
                          R1        R2        R3        R4        A1
           R1           0.37329
           R2           0.00099   0.37329
           R3           0.00099   0.00099   0.37329
           R4           0.00099   0.00099   0.00099   0.37329
           A1          -0.00000  -0.00000  -0.00000  -0.00000   0.16000
           A2           0.00000   0.00000   0.00000   0.00000  -0.00000
           A3           0.00000   0.00000   0.00000   0.00000  -0.00000
           A4           0.00000   0.00000   0.00000   0.00000  -0.00000
           A5           0.00000   0.00000   0.00000   0.00000  -0.00000
           A6          -0.00000  -0.00000  -0.00000  -0.00000   0.00000
           D1           0.00000   0.00000   0.00000   0.00000  -0.00000
           D2          -0.00000  -0.00000  -0.00000  -0.00000   0.00000
           D3           0.00000   0.00000   0.00000   0.00000  -0.00000
           D4           0.00000   0.00000   0.00000   0.00000  -0.00000
                          A2        A3        A4        A5        A6
           A2           0.16000
           A3           0.00000   0.16000
           A4           0.00000   0.00000   0.16000
           A5           0.00000   0.00000   0.00000   0.16000
           A6          -0.00000  -0.00000  -0.00000  -0.00000   0.16000
           D1           0.00000   0.00000   0.00000   0.00000  -0.00000
           D2          -0.00000  -0.00000  -0.00000  -0.00000   0.00000
           D3           0.00000   0.00000   0.00000   0.00000  -0.00000
           D4           0.00000   0.00000   0.00000   0.00000  -0.00000
                          D1        D2        D3        D4
           D1           0.00499
           D2          -0.00000   0.00499
           D3           0.00000  -0.00000   0.00499
           D4           0.00000  -0.00000   0.00000   0.00499
 ITU=  1  0
 Use linear search instead of GDIIS.
     Eigenvalues ---    0.05269   0.05891   0.08766   0.16000   0.16000
     Eigenvalues ---    0.37230   0.37230   0.37230   0.37625
 RFO step:  Lambda= 0.00000000D+00 EMin= 5.26881007D-02
 Quartic linear search produced a step of -0.00255.
 Iteration  1 RMS(Cart)=  0.00006148 RMS(Int)=  0.00000000
 Iteration  2 RMS(Cart)=  0.00000000 RMS(Int)=  0.00000000
 ClnCor:  largest displacement from symmetrization is 3.82D-15 for atom     5.
 Variable       Old X    -DE/DX   Delta X   Delta X   Delta X     New X
                                 (Linear)    (Quad)   (Total)
    R1        2.06706  -0.00004  -0.00012   0.00000  -0.00012   2.06694
    R2        2.06706  -0.00004  -0.00012  -0.00000  -0.00012   2.06694
    R3        2.06706  -0.00004  -0.00012   0.00000  -0.00012   2.06694
    R4        2.06706  -0.00004  -0.00012  -0.00000  -0.00012   2.06694
    A1        1.91063  -0.00000   0.00000   0.00000   0.00000   1.91063
    A2        1.91063  -0.00000   0.00000  -0.00000   0.00000   1.91063
    A3        1.91063   0.00000  -0.00000   0.00000   0.00000   1.91063
    A4        1.91063  -0.00000  -0.00000  -0.00000   0.00000   1.91063
    A5        1.91063   0.00000   0.00000   0.00000   0.00000   1.91063
    A6        1.91063  -0.00000   0.00000  -0.00000   0.00000   1.91063
    D1       -2.09440   0.00000  -0.00000   0.00000   0.00000  -2.09440
    D2        2.09440   0.00000   0.00000   0.00000   0.00000   2.09440
    D3       -2.09440   0.00000  -0.00000   0.00000   0.00000  -2.09440
    D4        2.09440  -0.00000  -0.00000  -0.00000   0.00000   2.09440
         Item               Value     Threshold  Converged?
 Maximum Force            0.000040     0.000450     YES
 RMS     Force            0.000022     0.000300     YES
 Maximum Displacement     0.000115     0.001800     YES
 RMS     Displacement     0.000061     0.001200     YES
 Predicted change in Energy=-8.664080D-09
 Optimization completed.
    -- Stationary point found.
                           ----------------------------
                           !   Optimized Parameters   !
                           ! (Angstroms and Degrees)  !
 --------------------------                            --------------------------
 ! Name  Definition              Value          Derivative Info.                !
 --------------------------------------------------------------------------------
 ! R1    R(1,2)                  1.0938         -DE/DX =    0.0                 !
 ! R2    R(1,3)                  1.0938         -DE/DX =    0.0                 !
 ! R3    R(1,4)                  1.0938         -DE/DX =    0.0                 !
 ! R4    R(1,5)                  1.0938         -DE/DX =    0.0                 !
 ! A1    A(2,1,3)              109.4712         -DE/DX =    0.0                 !
 ! A2    A(2,1,4)              109.4712         -DE/DX =    0.0                 !
 ! A3    A(2,1,5)              109.4712         -DE/DX =    0.0                 !
 ! A4    A(3,1,4)              109.4712         -DE/DX =    0.0                 !
 ! A5    A(3,1,5)              109.4712         -DE/DX =    0.0                 !
 ! A6    A(4,1,5)              109.4712         -DE/DX =    0.0                 !
 ! D1    D(2,1,4,3)           -120.0            -DE/DX =    0.0                 !
 ! D2    D(2,1,5,3)            120.0            -DE/DX =    0.0                 !
 ! D3    D(2,1,5,4)           -120.0            -DE/DX =    0.0                 !
 ! D4    D(3,1,5,4)            120.0            -DE/DX =    0.0                 !
 --------------------------------------------------------------------------------
 GradGradGradGradGradGradGradGradGradGradGradGradGradGradGradGradGradGrad

                          Input orientation:                          
 ---------------------------------------------------------------------
 Center     Atomic      Atomic             Coordinates (Angstroms)
 Number     Number       Type             X           Y           Z
 ---------------------------------------------------------------------
      1          6           0       -0.000000    0.000000    0.000000
      2          1           0       -0.000000   -0.000000    1.093840
      3          1           0       -0.000000   -1.031282   -0.364613
      4          1           0       -0.893116    0.515641   -0.364613
      5          1           0        0.893116    0.515641   -0.364613
 ---------------------------------------------------------------------
                    Distance matrix (angstroms):
                    1          2          3          4          5
     1  C    0.000000
     2  H    1.093840   0.000000
     3  H    1.093840   1.786233   0.000000
     4  H    1.093840   1.786233   1.786233   0.000000
     5  H    1.093840   1.786233   1.786233   1.786233   0.000000
 Stoichiometry    CH4
 Framework group  TD[O(C),4C3(H)]
 Deg. of freedom     1
 Full point group                 TD      NOp  24
 Largest Abelian subgroup         D2      NOp   4
 Largest concise Abelian subgroup D2      NOp   4
                         Standard orientation:                         
 ---------------------------------------------------------------------
 Center     Atomic      Atomic             Coordinates (Angstroms)
 Number     Number       Type             X           Y           Z
 ---------------------------------------------------------------------
      1          6           0        0.000000    0.000000    0.000000
      2          1           0        0.631529    0.631529    0.631529
      3          1           0       -0.631529   -0.631529    0.631529
      4          1           0       -0.631529    0.631529   -0.631529
      5          1           0        0.631529   -0.631529   -0.631529
 ---------------------------------------------------------------------
 Rotational constants (GHZ):         157.1650848         157.1650848         157.1650848

 **********************************************************************

            Population analysis using the SCF density.

 **********************************************************************

 Orbital symmetries:
       Occupied  (A1) (A1) (T2) (T2) (T2)
       Virtual   (A1) (T2) (T2) (T2) (T2) (T2) (T2) (A1) (T2) (T2)
                 (T2) (T2) (T2) (T2) (A1) (A1)
 The electronic state is 1-A1.
 Alpha  occ. eigenvalues --  -10.16569  -0.69853  -0.39547  -0.39547  -0.39547
 Alpha virt. eigenvalues --    0.01669   0.06167   0.06167   0.06167   0.18080
 Alpha virt. eigenvalues --    0.18080   0.18080   0.27571   0.65200   0.65200
 Alpha virt. eigenvalues --    0.65200   0.99214   0.99214   0.99214   1.06125
 Alpha virt. eigenvalues --    1.12851
          Condensed to atoms (all electrons):
               1          2          3          4          5
     1  C    5.255522   0.373560   0.373560   0.373560   0.373560
     2  H    0.373560   0.516160  -0.025720  -0.025720  -0.025720
     3  H    0.373560  -0.025720   0.516160  -0.025720  -0.025720
     4  H    0.373560  -0.025720  -0.025720   0.516160  -0.025720
     5  H    0.373560  -0.025720  -0.025720  -0.025720   0.516160
 Mulliken charges:
               1
     1  C   -0.749761
     2  H    0.187440
     3  H    0.187440
     4  H    0.187440
     5  H    0.187440
 Sum of Mulliken charges =  -0.00000
 Mulliken charges with hydrogens summed into heavy atoms:
               1
     1  C   -0.000000
 Electronic spatial extent (au):  <R**2>=             36.1719
 Charge=             -0.0000 electrons
 Dipole moment (field-independent basis, Debye):
    X=             -0.0000    Y=             -0.0000    Z=              0.0000  Tot=              0.0000
 Quadrupole moment (field-independent basis, Debye-Ang):
   XX=             -8.5549   YY=             -8.5549   ZZ=             -8.5549
   XY=             -0.0000   XZ=              0.0000   YZ=              0.0000
 Traceless Quadrupole moment (field-independent basis, Debye-Ang):
   XX=             -0.0000   YY=              0.0000   ZZ=              0.0000
   XY=             -0.0000   XZ=              0.0000   YZ=              0.0000
 Octapole moment (field-independent basis, Debye-Ang**2):
  XXX=             -0.0000  YYY=             -0.0000  ZZZ=              0.0000  XYY=             -0.0000
  XXY=              0.0000  XXZ=             -0.0000  XZZ=              0.0000  YZZ=              0.0000
  YYZ=              0.0000  XYZ=              0.6857
 Hexadecapole moment (field-independent basis, Debye-Ang**3):
 XXXX=            -17.5760 YYYY=            -17.5760 ZZZZ=            -17.5760 XXXY=             -0.0000
 XXXZ=              0.0000 YYYX=              0.0000 YYYZ=              0.0000 ZZZX=              0.0000
 ZZZY=              0.0000 XXYY=             -5.4323 XXZZ=             -5.4323 YYZZ=             -5.4323
 XXYZ=              0.0000 YYXZ=             -0.0000 ZZXY=              0.0000
 N-N= 1.338822877781D+01 E-N=-1.199097103480D+02  KE= 4.022453834653D+01
 Symmetry A    KE= 3.446514776207D+01
 Symmetry B1   KE= 1.919796861486D+00
 Symmetry B2   KE= 1.919796861486D+00
 Symmetry B3   KE= 1.919796861486D+00
 1\1\GINC-ARRAKIS\FOpt\RB3LYP\6-31+G\C1H4\EHARE\04-Jun-2018\0\\# opt fr
 eq b3lyp/6-31+g geom=connectivity\\Title Card Required\\0,1\C,0.,0.000
 000001,0.000000001\H,-0.000000006,-0.0000000007,1.0938395619\H,0.,-1.0
 312818265,-0.3646131875\H,-0.8931162586,0.5156409173,-0.3646131901\H,0
 .8931162645,0.5156409139,-0.3646131803\\Version=EM64L-G16RevA.03\State
 =1-A1\HF=-40.5129669\RMSD=2.371e-09\RMSF=2.090e-05\Dipole=0.,0.,0.\Qua
 drupole=0.,0.,0.,0.,0.,0.\PG=TD [O(C1),4C3(H1)]\\@


 MARY HAD A LITTLE LAMB
      HIS FEET WERE BLACK AS SOOT,
           AND EVERYWHERE THAT MARY WENT
                HIS SOOTY FOOT HE PUT.

                    -- NONAME
 Job cpu time:       0 days  0 hours  0 minutes  3.3 seconds.
 Elapsed time:       0 days  0 hours  0 minutes  5.0 seconds.
 File lengths (MBytes):  RWF=      6 Int=      0 D2E=      0 Chk=      1 Scr=      1
 Normal termination of Gaussian 16 at Mon Jun  4 15:28:30 2018.
 Link1:  Proceeding to internal job step number  2.
 ------------------------------------------------------------------
 #N Geom=AllCheck Guess=TCheck SCRF=Check GenChk RB3LYP/6-31+G Freq
 ------------------------------------------------------------------
 1/10=4,29=7,30=1,38=1,40=1/1,3;
 2/12=2,40=1/2;
 3/5=1,6=6,7=10,11=2,14=-4,25=1,30=1,70=2,71=2,74=-5,116=1,140=1/1,2,3;
 4/5=101/1;
 5/5=2,38=6,98=1/2;
 8/6=4,10=90,11=11/1;
 11/6=1,8=1,9=11,15=111,16=1/1,2,10;
 10/6=1/2;
 6/7=2,8=2,9=2,10=2,28=1/1;
 7/8=1,10=1,25=1/1,2,3,16;
 1/10=4,30=1/3;
 99//99;
 Structure from the checkpoint file:  "ch4.chk"
 -------------------
 Title Card Required
 -------------------
 Charge =  0 Multiplicity = 1
 Redundant internal coordinates found in file.  (old form).
 C,0,0.,0.000000001,0.000000001
 H,0,-0.000000006,-0.0000000007,1.0938395619
 H,0,0.,-1.0312818265,-0.3646131875
 H,0,-0.8931162586,0.5156409173,-0.3646131901
 H,0,0.8931162645,0.5156409139,-0.3646131803
 Recover connectivity data from disk.

 GradGradGradGradGradGradGradGradGradGradGradGradGradGradGradGradGradGrad
 Berny optimization.
 Initialization pass.
                           ----------------------------
                           !    Initial Parameters    !
                           ! (Angstroms and Degrees)  !
 --------------------------                            --------------------------
 ! Name  Definition              Value          Derivative Info.                !
 --------------------------------------------------------------------------------
 ! R1    R(1,2)                  1.0938         calculate D2E/DX2 analytically  !
 ! R2    R(1,3)                  1.0938         calculate D2E/DX2 analytically  !
 ! R3    R(1,4)                  1.0938         calculate D2E/DX2 analytically  !
 ! R4    R(1,5)                  1.0938         calculate D2E/DX2 analytically  !
 ! A1    A(2,1,3)              109.4712         calculate D2E/DX2 analytically  !
 ! A2    A(2,1,4)              109.4712         calculate D2E/DX2 analytically  !
 ! A3    A(2,1,5)              109.4712         calculate D2E/DX2 analytically  !
 ! A4    A(3,1,4)              109.4712         calculate D2E/DX2 analytically  !
 ! A5    A(3,1,5)              109.4712         calculate D2E/DX2 analytically  !
 ! A6    A(4,1,5)              109.4712         calculate D2E/DX2 analytically  !
 ! D1    D(2,1,4,3)           -120.0            calculate D2E/DX2 analytically  !
 ! D2    D(2,1,5,3)            120.0            calculate D2E/DX2 analytically  !
 ! D3    D(2,1,5,4)           -120.0            calculate D2E/DX2 analytically  !
 ! D4    D(3,1,5,4)            120.0            calculate D2E/DX2 analytically  !
 --------------------------------------------------------------------------------
 Trust Radius=3.00D-01 FncErr=1.00D-07 GrdErr=1.00D-07 EigMax=2.50D+02 EigMin=1.00D-04
 Number of steps in this run=      2 maximum allowed number of steps=      2.
 GradGradGradGradGradGradGradGradGradGradGradGradGradGradGradGradGradGrad

                          Input orientation:                          
 ---------------------------------------------------------------------
 Center     Atomic      Atomic             Coordinates (Angstroms)
 Number     Number       Type             X           Y           Z
 ---------------------------------------------------------------------
      1          6           0       -0.000000    0.000000    0.000000
      2          1           0       -0.000000   -0.000000    1.093840
      3          1           0       -0.000000   -1.031282   -0.364613
      4          1           0       -0.893116    0.515641   -0.364613
      5          1           0        0.893116    0.515641   -0.364613
 ---------------------------------------------------------------------
                    Distance matrix (angstroms):
                    1          2          3          4          5
     1  C    0.000000
     2  H    1.093840   0.000000
     3  H    1.093840   1.786233   0.000000
     4  H    1.093840   1.786233   1.786233   0.000000
     5  H    1.093840   1.786233   1.786233   1.786233   0.000000
 Stoichiometry    CH4
 Framework group  TD[O(C),4C3(H)]
 Deg. of freedom     1
 Full point group                 TD      NOp  24
 Largest Abelian subgroup         D2      NOp   4
 Largest concise Abelian subgroup D2      NOp   4
                         Standard orientation:                         
 ---------------------------------------------------------------------
 Center     Atomic      Atomic             Coordinates (Angstroms)
 Number     Number       Type             X           Y           Z
 ---------------------------------------------------------------------
      1          6           0        0.000000    0.000000    0.000000
      2          1           0        0.631529    0.631529    0.631529
      3          1           0       -0.631529   -0.631529    0.631529
      4          1           0       -0.631529    0.631529   -0.631529
      5          1           0        0.631529   -0.631529   -0.631529
 ---------------------------------------------------------------------
 Rotational constants (GHZ):         157.1650848         157.1650848         157.1650848
 Standard basis: 6-31+G (6D, 7F)
 There are     6 symmetry adapted cartesian basis functions of A   symmetry.
 There are     5 symmetry adapted cartesian basis functions of B1  symmetry.
 There are     5 symmetry adapted cartesian basis functions of B2  symmetry.
 There are     5 symmetry adapted cartesian basis functions of B3  symmetry.
 There are     6 symmetry adapted basis functions of A   symmetry.
 There are     5 symmetry adapted basis functions of B1  symmetry.
 There are     5 symmetry adapted basis functions of B2  symmetry.
 There are     5 symmetry adapted basis functions of B3  symmetry.
    21 basis functions,    42 primitive gaussians,    21 cartesian basis functions
     5 alpha electrons        5 beta electrons
       nuclear repulsion energy        13.3882287778 Hartrees.
 NAtoms=    5 NActive=    5 NUniq=    2 SFac= 4.00D+00 NAtFMM=   60 NAOKFM=F Big=F
 Integral buffers will be    131072 words long.
 Raffenetti 2 integral format.
 Two-electron integral symmetry is turned on.
 One-electron integrals computed using PRISM.
 NBasis=    21 RedAO= T EigKep=  1.42D-02  NBF=     6     5     5     5
 NBsUse=    21 1.00D-06 EigRej= -1.00D+00 NBFU=     6     5     5     5
 Initial guess from the checkpoint file:  "ch4.chk"
 B after Tr=    -0.000000   -0.000000   -0.000000
         Rot=    1.000000    0.000000   -0.000000   -0.000000 Ang=   0.00 deg.
 Initial guess orbital symmetries:
       Occupied  (A1) (A1) (T2) (T2) (T2)
       Virtual   (A1) (T2) (T2) (T2) (T2) (T2) (T2) (A1) (T2) (T2)
                 (T2) (T2) (T2) (T2) (A1) (A1)
 Keep R1 ints in memory in symmetry-blocked form, NReq=890432.
 Requested convergence on RMS density matrix=1.00D-08 within 128 cycles.
 Requested convergence on MAX density matrix=1.00D-06.
 Requested convergence on             energy=1.00D-06.
 No special actions if energy rises.
 Skip diagonalization as Alpha Fock matrix is already diagonal.
 SCF Done:  E(RB3LYP) =  -40.5129668991     A.U. after    1 cycles
            NFock=  1  Conv=0.00D+00     -V/T= 2.0072
 DoSCS=F DFT=T ScalE2(SS,OS)=  1.000000  1.000000
 Range of M.O.s used for correlation:     1    21
 NBasis=    21 NAE=     5 NBE=     5 NFC=     0 NFV=     0
 NROrb=     21 NOA=     5 NOB=     5 NVA=    16 NVB=    16
 Symmetrizing basis deriv contribution to polar:
 IMax=3 JMax=2 DiffMx= 0.00D+00
 G2DrvN: will do     6 centers at a time, making    1 passes.
 Calling FoFCou, ICntrl=  3107 FMM=F I1Cent=   0 AccDes= 0.00D+00.
 End of G2Drv F.D. properties file   721 does not exist.
 End of G2Drv F.D. properties file   722 does not exist.
 End of G2Drv F.D. properties file   788 does not exist.
          IDoAtm=11111
          Differentiating once with respect to electric field.
                with respect to dipole field.
          Differentiating once with respect to nuclear coordinates.
 Keep R1 ints in memory in symmetry-blocked form, NReq=891649.
          There are     9 degrees of freedom in the 1st order CPHF.  IDoFFX=4 NUNeed=     9.
      9 vectors produced by pass  0 Test12= 8.89D-16 1.11D-08 XBig12= 6.81D+00 1.51D+00.
 AX will form     9 AO Fock derivatives at one time.
      9 vectors produced by pass  1 Test12= 8.89D-16 1.11D-08 XBig12= 9.37D-02 1.71D-01.
      9 vectors produced by pass  2 Test12= 8.89D-16 1.11D-08 XBig12= 6.49D-05 3.99D-03.
      9 vectors produced by pass  3 Test12= 8.89D-16 1.11D-08 XBig12= 6.26D-08 1.36D-04.
      9 vectors produced by pass  4 Test12= 8.89D-16 1.11D-08 XBig12= 7.29D-12 2.00D-06.
      3 vectors produced by pass  5 Test12= 8.89D-16 1.11D-08 XBig12= 5.81D-16 1.25D-08.
 InvSVY:  IOpt=1 It=  1 EMax= 4.44D-16
 Solved reduced A of dimension    48 with     9 vectors.
 Isotropic polarizability for W=    0.000000       13.15 Bohr**3.
 End of Minotr F.D. properties file   721 does not exist.
 End of Minotr F.D. properties file   722 does not exist.
 End of Minotr F.D. properties file   788 does not exist.

 **********************************************************************

            Population analysis using the SCF density.

 **********************************************************************

 Orbital symmetries:
       Occupied  (A1) (A1) (T2) (T2) (T2)
       Virtual   (A1) (T2) (T2) (T2) (T2) (T2) (T2) (A1) (T2) (T2)
                 (T2) (T2) (T2) (T2) (A1) (A1)
 The electronic state is 1-A1.
 Alpha  occ. eigenvalues --  -10.16569  -0.69853  -0.39547  -0.39547  -0.39547
 Alpha virt. eigenvalues --    0.01669   0.06167   0.06167   0.06167   0.18080
 Alpha virt. eigenvalues --    0.18080   0.18080   0.27571   0.65200   0.65200
 Alpha virt. eigenvalues --    0.65200   0.99214   0.99214   0.99214   1.06125
 Alpha virt. eigenvalues --    1.12851
          Condensed to atoms (all electrons):
               1          2          3          4          5
     1  C    5.255522   0.373560   0.373560   0.373560   0.373560
     2  H    0.373560   0.516160  -0.025720  -0.025720  -0.025720
     3  H    0.373560  -0.025720   0.516160  -0.025720  -0.025720
     4  H    0.373560  -0.025720  -0.025720   0.516160  -0.025720
     5  H    0.373560  -0.025720  -0.025720  -0.025720   0.516160
 Mulliken charges:
               1
     1  C   -0.749761
     2  H    0.187440
     3  H    0.187440
     4  H    0.187440
     5  H    0.187440
 Sum of Mulliken charges =  -0.00000
 Mulliken charges with hydrogens summed into heavy atoms:
               1
     1  C   -0.000000
 APT charges:
               1
     1  C   -0.065512
     2  H    0.016378
     3  H    0.016378
     4  H    0.016378
     5  H    0.016378
 Sum of APT charges =  -0.00000
 APT charges with hydrogens summed into heavy atoms:
               1
     1  C   -0.000000
 Electronic spatial extent (au):  <R**2>=             36.1719
 Charge=             -0.0000 electrons
 Dipole moment (field-independent basis, Debye):
    X=             -0.0000    Y=             -0.0000    Z=              0.0000  Tot=              0.0000
 Quadrupole moment (field-independent basis, Debye-Ang):
   XX=             -8.5549   YY=             -8.5549   ZZ=             -8.5549
   XY=              0.0000   XZ=             -0.0000   YZ=             -0.0000
 Traceless Quadrupole moment (field-independent basis, Debye-Ang):
   XX=             -0.0000   YY=             -0.0000   ZZ=              0.0000
   XY=              0.0000   XZ=             -0.0000   YZ=             -0.0000
 Octapole moment (field-independent basis, Debye-Ang**2):
  XXX=              0.0000  YYY=             -0.0000  ZZZ=              0.0000  XYY=              0.0000
  XXY=             -0.0000  XXZ=              0.0000  XZZ=             -0.0000  YZZ=             -0.0000
  YYZ=              0.0000  XYZ=              0.6857
 Hexadecapole moment (field-independent basis, Debye-Ang**3):
 XXXX=            -17.5760 YYYY=            -17.5760 ZZZZ=            -17.5760 XXXY=             -0.0000
 XXXZ=              0.0000 YYYX=             -0.0000 YYYZ=              0.0000 ZZZX=              0.0000
 ZZZY=             -0.0000 XXYY=             -5.4323 XXZZ=             -5.4323 YYZZ=             -5.4323
 XXYZ=             -0.0000 YYXZ=             -0.0000 ZZXY=             -0.0000
 N-N= 1.338822877781D+01 E-N=-1.199097103480D+02  KE= 4.022453834653D+01
 Symmetry A    KE= 3.446514776207D+01
 Symmetry B1   KE= 1.919796861486D+00
 Symmetry B2   KE= 1.919796861486D+00
 Symmetry B3   KE= 1.919796861486D+00
  Exact polarizability:  13.153  -0.000  13.153  -0.000  -0.000  13.153
 Approx polarizability:  15.106   0.000  15.106  -0.000   0.000  15.106
 Calling FoFJK, ICntrl=    100127 FMM=F ISym2X=1 I1Cent= 0 IOpClX= 0 NMat=1 NMatS=1 NMatT=0.
 Full mass-weighted force constant matrix:
 Low frequencies ---   -0.0012   -0.0011   -0.0009   23.7980   23.7980   23.7980
 Low frequencies --- 1396.9202 1396.9202 1396.9202
 Diagonal vibrational polarizability:
        0.5177511       0.5177511       0.5177511
 Harmonic frequencies (cm**-1), IR intensities (KM/Mole), Raman scattering
 activities (A**4/AMU), depolarization ratios for plane and unpolarized
 incident light, reduced masses (AMU), force constants (mDyne/A),
 and normal coordinates:
                      1                      2                      3
                     T2                     T2                     T2
 Frequencies --   1396.9202              1396.9202              1396.9202
 Red. masses --      1.1828                 1.1828                 1.1828
 Frc consts  --      1.3599                 1.3599                 1.3599
 IR Inten    --     31.5069                31.5069                31.5069
  Atom  AN      X      Y      Z        X      Y      Z        X      Y      Z
     1   6    -0.10   0.04   0.06     0.01  -0.09   0.08    -0.07  -0.07  -0.07
     2   1     0.49  -0.20  -0.29    -0.05   0.45  -0.40    -0.05  -0.05  -0.05
     3   1     0.27  -0.42  -0.07    -0.36   0.15  -0.10     0.22   0.22   0.48
     4   1     0.34  -0.05  -0.44     0.29   0.11  -0.06     0.22   0.48   0.22
     5   1     0.12   0.17   0.08    -0.01   0.41  -0.44     0.48   0.22   0.22
                      4                      5                      6
                      E                      E                     A1
 Frequencies --   1592.1907              1592.1907              3037.8912
 Red. masses --      1.0078                 1.0078                 1.0078
 Frc consts  --      1.5053                 1.5053                 5.4800
 IR Inten    --      0.0000                 0.0000                 0.0000
  Atom  AN      X      Y      Z        X      Y      Z        X      Y      Z
     1   6     0.00  -0.00  -0.00    -0.00   0.00  -0.00     0.00   0.00   0.00
     2   1     0.38  -0.05  -0.32    -0.16   0.40  -0.25     0.29   0.29   0.29
     3   1    -0.38   0.05  -0.32     0.16  -0.40  -0.25    -0.29  -0.29   0.29
     4   1    -0.38  -0.05   0.32     0.16   0.40   0.25    -0.29   0.29  -0.29
     5   1     0.38   0.05   0.32    -0.16  -0.40   0.25     0.29  -0.29  -0.29
                      7                      8                      9
                     T2                     T2                     T2
 Frequencies --   3156.0150              3156.0150              3156.0150
 Red. masses --      1.0984                 1.0984                 1.0984
 Frc consts  --      6.4458                 6.4458                 6.4458
 IR Inten    --     30.8108                30.8108                30.8108
  Atom  AN      X      Y      Z        X      Y      Z        X      Y      Z
     1   6    -0.07  -0.04  -0.04     0.05  -0.07  -0.01    -0.02  -0.03   0.08
     2   1     0.47   0.48   0.48     0.12   0.09   0.10    -0.10  -0.10  -0.07
     3   1     0.23   0.24  -0.26     0.05   0.01  -0.04     0.44   0.44  -0.42
     4   1     0.18  -0.22   0.19    -0.36   0.35  -0.38    -0.29   0.28  -0.26
     5   1    -0.05   0.02   0.02    -0.43   0.42   0.44     0.24  -0.26  -0.23

 -------------------
 - Thermochemistry -
 -------------------
 Temperature   298.150 Kelvin.  Pressure   1.00000 Atm.
 Atom     1 has atomic number  6 and mass  12.00000
 Atom     2 has atomic number  1 and mass   1.00783
 Atom     3 has atomic number  1 and mass   1.00783
 Atom     4 has atomic number  1 and mass   1.00783
 Atom     5 has atomic number  1 and mass   1.00783
 Molecular mass:    16.03130 amu.
 Principal axes and moments of inertia in atomic units:
                           1         2         3
     Eigenvalues --    11.48309  11.48309  11.48309
           X           -0.21539   0.82644   0.52020
           Y            0.06366  -0.51969   0.85198
           Z            0.97445   0.21663   0.05932
 This molecule is a spherical top.
 Rotational symmetry number 12.
 Rotational temperatures (Kelvin)      7.54273     7.54273     7.54273
 Rotational constants (GHZ):         157.16508   157.16508   157.16508
 Zero-point vibrational energy     118915.3 (Joules/Mol)
                                   28.42143 (Kcal/Mol)
 Vibrational temperatures:   2009.86  2009.86  2009.86  2290.81  2290.81
          (Kelvin)           4370.85  4540.80  4540.80  4540.80
 
 Zero-point correction=                           0.045292 (Hartree/Particle)
 Thermal correction to Energy=                    0.048154
 Thermal correction to Enthalpy=                  0.049098
 Thermal correction to Gibbs Free Energy=         0.027968
 Sum of electronic and zero-point Energies=            -40.467674
 Sum of electronic and thermal Energies=               -40.464813
 Sum of electronic and thermal Enthalpies=             -40.463868
 Sum of electronic and thermal Free Energies=          -40.484999
 
                     E (Thermal)             CV                S
                      KCal/Mol        Cal/Mol-Kelvin    Cal/Mol-Kelvin
 Total                   30.217              6.391             44.472
 Electronic               0.000              0.000              0.000
 Translational            0.889              2.981             34.261
 Rotational               0.889              2.981             10.141
 Vibrational             28.440              0.429              0.071
                       Q            Log10(Q)             Ln(Q)
 Total Bot       0.136631D-12        -12.864452        -29.621496
 Total V=0       0.930251D+08          7.968600         18.348380
 Vib (Bot)       0.147533D-20        -20.831112        -47.965407
 Vib (V=0)       0.100448D+01          0.001941          0.004468
 Electronic      0.100000D+01          0.000000          0.000000
 Translational   0.252294D+07          6.401907         14.740936
 Rotational      0.367073D+02          1.564753          3.602976
 ***** Axes restored to original set *****
 -------------------------------------------------------------------
 Center     Atomic                   Forces (Hartrees/Bohr)
 Number     Number              X              Y              Z
 -------------------------------------------------------------------
      1        6          -0.000000000    0.000000000    0.000000000
      2        1           0.000000000    0.000000000   -0.000040470
      3        1           0.000000000    0.000038155    0.000013490
      4        1           0.000033043   -0.000019078    0.000013490
      5        1          -0.000033043   -0.000019078    0.000013490
 -------------------------------------------------------------------
 Cartesian Forces:  Max     0.000040470 RMS     0.000020899
 FormGI is forming the generalized inverse of G from B-inverse, IUseBI=4.

 GradGradGradGradGradGradGradGradGradGradGradGradGradGradGradGradGradGrad
 Berny optimization.
 Internal  Forces:  Max     0.000040470 RMS     0.000021632
 Search for a local minimum.
 Step number   1 out of a maximum of    2
 All quantities printed in internal units (Hartrees-Bohrs-Radians)
 Second derivative matrix not updated -- analytic derivatives used.
 The second derivative matrix:
                          R1        R2        R3        R4        A1
           R1           0.34725
           R2           0.00158   0.34725
           R3           0.00158   0.00158   0.34725
           R4           0.00158   0.00158   0.00158   0.34725
           A1           0.00233   0.00233  -0.00147  -0.00320   0.02056
           A2           0.00366  -0.00094   0.00407  -0.00679  -0.00892
           A3           0.00715  -0.00574  -0.00635   0.00494  -0.01355
           A4          -0.00094   0.00366   0.00407  -0.00679  -0.00892
           A5          -0.00574   0.00715  -0.00635   0.00494  -0.01355
           A6          -0.00646  -0.00646   0.00603   0.00690   0.02438
           D1          -0.00452  -0.00452  -0.00319   0.01224  -0.01425
           D2           0.00372   0.00372  -0.00958   0.00213   0.00858
           D3          -0.00490   0.00863  -0.00479   0.00106   0.00429
           D4          -0.00863   0.00490   0.00479  -0.00106  -0.00429
                          A2        A3        A4        A5        A6
           A2           0.03896
           A3          -0.02356   0.07611
           A4          -0.00180   0.02513   0.03896
           A5           0.02513  -0.03656  -0.02356   0.07611
           A6          -0.02982  -0.02757  -0.02982  -0.02757   0.09041
           D1          -0.01183   0.01563  -0.01183   0.01563   0.00666
           D2          -0.00996   0.00762  -0.00996   0.00762  -0.00391
           D3          -0.01503  -0.00087   0.00507   0.00849  -0.00196
           D4          -0.00507  -0.00849   0.01503   0.00087   0.00196
                          D1        D2        D3        D4
           D1           0.03195
           D2           0.00169   0.01985
           D3           0.00084   0.00993   0.02014
           D4          -0.00084  -0.00993   0.01021   0.02014
 ITU=  0
     Eigenvalues ---    0.04041   0.04558   0.06941   0.13648   0.13684
     Eigenvalues ---    0.34701   0.34703   0.34744   0.35198
 Angle between quadratic step and forces=   0.00 degrees.
 Linear search not attempted -- first point.
 Iteration  1 RMS(Cart)=  0.00006146 RMS(Int)=  0.00000000
 Iteration  2 RMS(Cart)=  0.00000000 RMS(Int)=  0.00000000
 ClnCor:  largest displacement from symmetrization is 3.73D-14 for atom     4.
 Variable       Old X    -DE/DX   Delta X   Delta X   Delta X     New X
                                 (Linear)    (Quad)   (Total)
    R1        2.06706  -0.00004   0.00000  -0.00011  -0.00011   2.06694
    R2        2.06706  -0.00004   0.00000  -0.00011  -0.00011   2.06694
    R3        2.06706  -0.00004   0.00000  -0.00011  -0.00011   2.06694
    R4        2.06706  -0.00004   0.00000  -0.00011  -0.00011   2.06694
    A1        1.91063   0.00000   0.00000  -0.00000   0.00000   1.91063
    A2        1.91063  -0.00000   0.00000  -0.00000  -0.00000   1.91063
    A3        1.91063  -0.00000   0.00000  -0.00000   0.00000   1.91063
    A4        1.91063   0.00000   0.00000   0.00000   0.00000   1.91063
    A5        1.91063  -0.00000   0.00000  -0.00000   0.00000   1.91063
    A6        1.91063   0.00000   0.00000   0.00000   0.00000   1.91063
    D1       -2.09440  -0.00000   0.00000   0.00000   0.00000  -2.09440
    D2        2.09440  -0.00000   0.00000  -0.00000   0.00000   2.09440
    D3       -2.09440  -0.00000   0.00000   0.00000   0.00000  -2.09440
    D4        2.09440   0.00000   0.00000   0.00000   0.00000   2.09440
         Item               Value     Threshold  Converged?
 Maximum Force            0.000040     0.000450     YES
 RMS     Force            0.000022     0.000300     YES
 Maximum Displacement     0.000115     0.001800     YES
 RMS     Displacement     0.000061     0.001200     YES
 Predicted change in Energy=-9.306169D-09
 Optimization completed.
    -- Stationary point found.
                           ----------------------------
                           !   Optimized Parameters   !
                           ! (Angstroms and Degrees)  !
 --------------------------                            --------------------------
 ! Name  Definition              Value          Derivative Info.                !
 --------------------------------------------------------------------------------
 ! R1    R(1,2)                  1.0938         -DE/DX =    0.0                 !
 ! R2    R(1,3)                  1.0938         -DE/DX =    0.0                 !
 ! R3    R(1,4)                  1.0938         -DE/DX =    0.0                 !
 ! R4    R(1,5)                  1.0938         -DE/DX =    0.0                 !
 ! A1    A(2,1,3)              109.4712         -DE/DX =    0.0                 !
 ! A2    A(2,1,4)              109.4712         -DE/DX =    0.0                 !
 ! A3    A(2,1,5)              109.4712         -DE/DX =    0.0                 !
 ! A4    A(3,1,4)              109.4712         -DE/DX =    0.0                 !
 ! A5    A(3,1,5)              109.4712         -DE/DX =    0.0                 !
 ! A6    A(4,1,5)              109.4712         -DE/DX =    0.0                 !
 ! D1    D(2,1,4,3)           -120.0            -DE/DX =    0.0                 !
 ! D2    D(2,1,5,3)            120.0            -DE/DX =    0.0                 !
 ! D3    D(2,1,5,4)           -120.0            -DE/DX =    0.0                 !
 ! D4    D(3,1,5,4)            120.0            -DE/DX =    0.0                 !
 --------------------------------------------------------------------------------
 GradGradGradGradGradGradGradGradGradGradGradGradGradGradGradGradGradGrad

 Dipole is zero, so no output in dipole orientation.

 ----------------------------------------------------------------------

 Electric dipole moment (input orientation):
 (Debye = 10**-18 statcoulomb cm , SI units = C m)
                  (au)            (Debye)         (10**-30 SI)
   Tot        0.000000D+00      0.000000D+00      0.000000D+00
   x          0.000000D+00      0.000000D+00      0.000000D+00
   y          0.000000D+00      0.000000D+00      0.000000D+00
   z          0.000000D+00      0.000000D+00      0.000000D+00

 Dipole polarizability, Alpha (input orientation).
 (esu units = cm**3 , SI units = C**2 m**2 J**-1)
 Alpha(0;0):
               (au)            (10**-24 esu)      (10**-40 SI)
   iso        0.131534D+02      0.194913D+01      0.216870D+01
   aniso      0.000000D+00      0.000000D+00      0.000000D+00
   xx         0.131534D+02      0.194913D+01      0.216870D+01
   yx         0.000000D+00      0.000000D+00      0.000000D+00
   yy         0.131534D+02      0.194913D+01      0.216870D+01
   zx         0.000000D+00      0.000000D+00      0.000000D+00
   zy         0.000000D+00      0.000000D+00      0.000000D+00
   zz         0.131534D+02      0.194913D+01      0.216870D+01

 ----------------------------------------------------------------------
 1\1\GINC-ARRAKIS\Freq\RB3LYP\6-31+G\C1H4\EHARE\04-Jun-2018\0\\#N Geom=
 AllCheck Guess=TCheck SCRF=Check GenChk RB3LYP/6-31+G Freq\\Title Card
  Required\\0,1\C,0.,0.000000001,0.000000001\H,-0.000000006,-0.00000000
 07,1.0938395619\H,0.,-1.0312818265,-0.3646131875\H,-0.8931162586,0.515
 6409173,-0.3646131901\H,0.8931162645,0.5156409139,-0.3646131803\\Versi
 on=EM64L-G16RevA.03\State=1-A1\HF=-40.5129669\RMSD=0.000e+00\RMSF=2.09
 0e-05\ZeroPoint=0.0452924\Thermal=0.0481543\Dipole=0.,0.,0.\DipoleDeri
 v=-0.0655115,0.,0.,0.,-0.0655115,0.,0.,0.,-0.0655115,0.1051122,0.,0.,0
 .,0.1051122,0.,0.,0.,-0.1610909,0.1051122,0.,0.,0.,-0.1315127,-0.08365
 96,0.,-0.0836596,0.0755341,-0.0723565,0.1024616,-0.0724513,0.1024616,0
 .045956,0.0418298,-0.0724513,0.0418298,0.0755341,-0.0723565,-0.1024616
 ,0.0724513,-0.1024616,0.045956,0.0418298,0.0724513,0.0418298,0.0755341
 \Polar=13.1533861,0.,13.1533861,0.,0.,13.1533861\Quadrupole=0.,0.,0.,0
 .,0.,0.\PG=TD [O(C1),4C3(H1)]\NImag=0\\0.55013010,0.,0.55013010,0.,0.,
 0.55013010,-0.04795112,0.,0.,0.04759432,0.,-0.04795112,0.,0.,0.0475943
 2,0.,0.,-0.31669534,0.,0.,0.34724863,-0.04795112,0.,0.,-0.00075983,0.,
 0.,0.04759432,0.,-0.28683487,-0.08445816,0.,0.00099769,0.00192708,0.,0
 .31395371,0.,-0.08445816,-0.07781159,0.,-0.03355490,-0.01018443,0.,0.0
 9417226,0.08088925,-0.22711393,0.10343970,-0.07314291,0.00055831,-0.00
 076103,0.00166890,0.00055831,-0.00182713,0.00016120,0.24736386,0.10343
 970,-0.10767206,0.04222908,-0.00076103,-0.00032045,-0.00096354,0.02714
 378,-0.01405826,0.01192040,-0.11533700,0.11418417,-0.07314292,0.042229
 08,-0.07781159,-0.02905939,0.01677745,-0.01018443,0.01040397,-0.005820
 59,0.00355339,0.08155557,-0.04708613,0.08088925,-0.22711394,-0.1034397
 0,0.07314291,0.00055831,0.00076103,-0.00166890,0.00055831,0.00182713,-
 0.00016120,-0.02136655,-0.01448546,0.01024276,0.24736386,-0.10343970,-
 0.10767206,0.04222908,0.00076103,-0.00032045,-0.00096354,-0.02714378,-
 0.01405826,0.01192040,0.01448546,0.00786660,-0.00609981,0.11533700,0.1
 1418417,0.07314291,0.04222908,-0.07781159,0.02905939,0.01677745,-0.010
 18443,-0.01040397,-0.00582059,0.00355339,-0.01024276,-0.00609981,0.003
 55339,-0.08155557,-0.04708613,0.08088924\\0.,0.,0.,0.,0.,0.00004047,0.
 ,-0.00003816,-0.00001349,-0.00003304,0.00001908,-0.00001349,0.00003304
 ,0.00001908,-0.00001349\\\@


 WE HAVE LEARNED THAT NOTHING IS SIMPLE AND
 RATIONAL EXCEPT WHAT WE OURSELVES HAVE INVENTED;
 THAT GOD THINKS IN TERMS NEITHER OF EUCLID OR RIEMANN; THAT SCIENCE HAS "EXPLAINED" NOTHING;
 THAT THE MORE WE KNOW THE MORE FANTASTIC THE WORLD BECOMES
 AND THE PROFOUNDER THE SURROUNDING DARKNESS.
   --  ALDOUS HUXLEY
 Job cpu time:       0 days  0 hours  0 minutes  3.6 seconds.
 Elapsed time:       0 days  0 hours  0 minutes  4.6 seconds.
 File lengths (MBytes):  RWF=      6 Int=      0 D2E=      0 Chk=      1 Scr=      1
 Normal termination of Gaussian 16 at Mon Jun  4 15:28:35 2018.
