
 *******************************************************************************
 *                                                                             *
 *  -------------------------------------                                      *
 *   Amsterdam Density Functional  (ADF)         2017                          *
 *  -------------------------------------                                      *
 *                                               r61155 2017-09-11             *
 *                                                                             *
 *                                                                             *
 *                            =====================                            *
 *                            |                   |                            *
 *                            |     D I R A C     |                            *
 *                            |                   |                            *
 *                            =====================                            *
 *                                                                             *
 *                                                                             *
 *   Online information and documentation:  https://www.scm.com/support/       *
 *   E-mail:  support@scm.com   info@scm.com                                   *
 *                                                                             *
 *   Scientific publications using ADF results must be properly referenced     *
 *   See the User Manuals (or the web site) for recommended citations          *
 *   The terms and conditions of the End User License Agreement apply to       *
 *   the use of ADF, https://www.scm.com/license-terms/                        *
 *                                                                             *
 ***********************  x86_64_linux_intel / openmpi  ************************
 
 Licensed to: Prof. Pere Miro / University of South Dakota, Department of Chemistry / Vermillion / SD / USA
 SCM User ID: u19501
  
 DIRAC 2017  RunTime: Jun13-2018 15:46:11  Nodes: 1  Procs: 1

 Temporary files are created in /tmp/24723/kid_0.5p62Fp

1
 HYDROGEN ATOM RELATIVISTIC, Point Nuc, A and c from libtc   
 N J RN H ZN XION ANUC CLIGHT
 5000    1100.00000000197.36710137  1.00000000  0.00000000    1.007825  0.1370360E+03
  PH   PHI     EPS        DEL        DELRVR
  0.30  0.30     2500.00  0.00001000  0.00001000
 IDIRC  NC1  NDEBU NPRIN  IPUN IRCOR IWCOR
   1   300     0     0     0     0     0
   XALPHA      XLATTER      RNUC
  0.70000000  0.00000000  0.00000000 Point Charge
   XN   XL   XJ      XE          XZ      XDELL
  1.0  0.0  0.5      -1.000       1.000     0.00000
 ICORP=  0  NPCL=  0  DEMP=0.00  PEPS=0.000000
 R(1)=  0.1000000E-08 D=  0.1005080E+01 RNUC=  0.0000000E+00
 converged at cycle   32  DENSITY AVERAGING    0.2400
  MAXIMUM ERROR IN R.V(R) IS   0.79874357E-05
 Q,EY,EV,EZ,ESUM,ETOT,RHO  0.100000E+01 -0.266614E+00 -0.619969E+00 -0.910779E+00 -0.203940E+00 -0.415998E+00  0.337036E-17


 DIRAC CALCULATION
1                    HYDROGEN ATOM RELATIVISTIC, Point Nuc, A and c from libtc


 EXCHANGE COEFFICIENT=  0.7000000           TAIL CORRECTION=  0.           NUCLEAR RADIUS=  0.000E+00
0                       ORBITAL    N    L    J     ELECTRONS     EIGENVALUE                DELTA OF EIGENV.

                          1S1/2  1.0  0.0  0.5     1.000       -0.2039397E+00                 0.2720093E-06


                                        NUCLEAR CHARGE=    1.000000
                            INTEGRAL OF CHARGE DENSITY=    1.000000
                           SUM OF THE ORBITAL ENERGIES=     -0.2039
                                          TOTAL ENERGY=     -0.4160
                                        KINETIC ENERGY=      0.4160
                             NUCLEAR ATTRACTION ENERGY=     -0.9108
                             ELECTRON REPULSION ENERGY=      0.2787
                                       EXCHANGE ENERGY=     -0.2000

 *******************************************************************************

                             D I R A C   E X I T
 NORMAL TERMINATION



 =================
 Timing Statistics
 =================
  
 Total Used :                     CPU=        0.12      System=        0.02     Elapsed=        0.34

 Calls  Section                     ( Mean, Percentage )
 ---------------------------------------------------------------------------------------------------
     2  ><      ................      0.00    0.01             0.00    0.03             0.00    0.00
     1  EXIT PROCEDURE .........      0.12   99.99             0.02   99.97             0.34  100.00


 Currently Open Files (EXIT00)
 ====================

 Unit    Access Format  Status   Type       Ident (file)
 -------------------------------------------------------
   3      SEQ    FORM   TRANSP  NORMAL      LOGFILE
                                          ( logfile )


 Buffered I/O statistics
 =======================
 Memory available:                     67108864
 Number of records fitting in memory:     16131
 Input : 100.0% of                            0  *4k bytes
 Output: 100.0% of                            0  *4k bytes
 Records from serial files evicted:           0
                    others evicted:           0
 Hash table lookups:          0 with          0 conflicts (100.00%)

Create H   file=TZP-H
XC
GGA PBE
End
relativistic ZORA
Corepotentials t12.rel
End Input

 *******************************************************************************
 *                                                                             *
 *  -------------------------------------                                      *
 *   Amsterdam Density Functional  (ADF)         2017                          *
 *  -------------------------------------                                      *
 *                                               r61155 2017-09-11             *
 *                                                                             *
 *                                                                             *
 *                              =================                              *
 *                              |               |                              *
 *                              |     A D F     |                              *
 *                              |               |                              *
 *                              =================                              *
 *                                                                             *
 *                                                                             *
 *   Online information and documentation:  https://www.scm.com/support/       *
 *   E-mail:  support@scm.com   info@scm.com                                   *
 *                                                                             *
 *   Scientific publications using ADF results must be properly referenced     *
 *   See the User Manuals (or the web site) for recommended citations          *
 *   The terms and conditions of the End User License Agreement apply to       *
 *   the use of ADF, https://www.scm.com/license-terms/                        *
 *                                                                             *
 ***********************  x86_64_linux_intel / openmpi  ************************
 
 Licensed to: Prof. Pere Miro / University of South Dakota, Department of Chemistry / Vermillion / SD / USA
 SCM User ID: u19501
  
 ADF 2017  RunTime: Jun13-2018 15:46:12  Nodes: 1  Procs: 1

 Temporary files are created in /tmp/24723/kid_0.ud45J6

 Hydrogen (TZP)



 ===========================
 A T T A C H E D   F I L E S
 ===========================
  
 CREATE - Data File:    TZP-H
                        Hydrogen (TZP)
 Core Potentials:
         file : t12.rel



 ===============================
 M O D E L   P A R A M E T E R S
 ===============================
  
 DENSITY FUNCTIONAL POTENTIAL (scf)
    LDA:                               PW92                                    == Not Default ==
    Gradient Corrections:              PBEc PBEx                               == Not Default ==

 SPIN  (restricted / unrestr.)
    Molecule:                          Restricted                               

 OTHER ASPECTS
    Relativistic Corrections:          scalar (ZORA,MAPA)                      == Not Default ==

    Nuclear Charge Density Model:      Point Charge Nuclei                      
    Core Treatment:                    Frozen Orbital(s)                        

    Hyperfine or Zeeman Interaction:   ---                                      



 =====================================
 S Y M M E T R Y ,   E L E C T R O N S
 =====================================
  
 Symmetry: ATOM

 Irreducible Representations, including subspecies
 -------------------------------------------------
 S
 P:x  P:y  P:z
 D:z2  D:x2-y2  D:xy  D:xz  D:yz
 F:z3  F:z  F:xyz  F:z2x  F:z2y  F:x  F:y


 Configuration of Valence Electrons
 ==================================

          Occupation Numbers
          -------------------------------------------------
 S        1
 P        0
 D        0
 F        0
          -------------------------------------------------

 Total:   1

 Net Charge: 0 (Nuclei minus Electrons)

 Preset values for MO occupations will be applied through SCF cycle no. 1000000
 Thereafter, the program will assign electrons to MOs that are spatially
 similar to the occupied MOs in a "reference" cycle ("KeepOrbitals").
 The reference cycle is always the PREVIOUS cycle: it will evolve with
 the SCF procedure.



 ================================
 (Slater-type)  F U N C T I O N S  ***  (Basis and Fit)  ***
 ================================
  

 Atom Type    1  (H)
 ==============

 Valence Basis Sets:   4
 -----------------------
   1 S    0.690000
   1 S    0.920000
   1 S    1.580000
   2 P    1.250000


 BAS: List of all Elementary Cartesian Basis Functions
 =====================================================

 The numbering in the list below (to the right of the function characteristics) is referred
 to in print-outs of MO eigenvectors and Mulliken populations in the BAS representation
 (as contrasted to the SFO representation).

 Notes:
 1. The functions are characterized by a polynomial prefactor (powers of x,y,z and r) and
    an exponential decay factor alpha.
 2. Since the basis sets are specific for an atom TYPE, the individual functions occur on
    all atoms of that type.
 3. The word 'Core' in the left margin signals that it is a Core Function (CF) : not a
    degree of freedom in the valence set, but only used to ensure orthogonalization of
    the other valence basis functions on the frozen Core Orbitals.


 (power of) X  Y  Z  R     Alpha  on Atom
            ==========     =====     ==========

 H                                    1
                                  ---------------------------------------------------------------------------
            0  0  0  0     0.690      1
            0  0  0  0     0.920      2
            0  0  0  0     1.580      3
            1  0  0  0     1.250      4
            0  1  0  0     1.250      5
            0  0  1  0     1.250      6

 Total number of charge fitting functions (nprimf)        50
 Total number of Cartesian basis functions (naos)          6
 Total number of Cartesian core functions  (ncos)          0



 BAS: List of all Elementary Cartesian Basis Functions
 =====================================================

 The numbering in the list below (to the right of the function characteristics) is referred
 to in print-outs of MO eigenvectors and Mulliken populations in the BAS representation
 (as contrasted to the SFO representation).

 Notes:
 1. The functions are characterized by a polynomial prefactor (powers of x,y,z and r) and
    an exponential decay factor alpha.
 2. Since the basis sets are specific for an atom TYPE, the individual functions occur on
    all atoms of that type.
 3. The word 'Core' in the left margin signals that it is a Core Function (CF) : not a
    degree of freedom in the valence set, but only used to ensure orthogonalization of
    the other valence basis functions on the frozen Core Orbitals.


 (power of) X  Y  Z  R     Alpha  on Atom
            ==========     =====     ==========

 H                                    1
                                  ---------------------------------------------------------------------------
            0  0  0  0     0.690      1
            0  0  0  0     0.920      2
            0  0  0  0     1.580      3
            1  0  0  0     1.250      4
            0  1  0  0     1.250      5
            0  0  1  0     1.250      6
1
 ***************************************************************************************************



                                              ***********************
                                              *  T E C H N I C A L  *
                                              ***********************
  



 =============================================================
 P A R A L L E L I Z A T I O N  and  V E C T O R I Z A T I O N
 =============================================================
  
 Nr of parallel processes:                                1
 Maximum vector length in NumInt loops:                 128

 IO buffersize (Mb):                                     64.000000



 =====================
 S C F   U P D A T E S
 =====================
  
 Max. nr. of cycles:                               300
 Convergence criterion:                              0.0000000100
   secondary criterion:                              0.0000000100

 Mix parameter (when DIIS does not apply):           0.2000000000
 Special mix parameter for the first cycle:          1.0000000000
 Mixed ADIIS+DIIS will be used
    Max number of expansion vectors:                10
    Pure ADIIS when Max([F,P]) is above              0.1000000000
    Pure DIIS when Max([F,P]) is below               0.0010000000
 Automatic ElectronSmearing (in case of problematic SCF convergence) disabled



 =================
 P R E C I S I O N  ***  (General: NumInt, NeglectFunctionTails, ...)  ***
 =================
  

 NumInt:           Target precision:                12.0000000000
 -------           Initial precision:               10.0000000000
                   Min. precision (optimization):   10.0000000000

 Neglect Functions:          Basis functions:        0.1000000000E-13
 ------------------          Fit functions:          0.1000000000E-13



 ===========================
 L I N E A R   S C A L I N G
 ===========================
  

 Cut-off radii density fit:                        0.1000000000E-97
 Overlap cut-off criterion AO matrix elements:     0.1000000000E-97
 Cut-offs for Coulomb potential and fitted density:0.1000000000E-97
 Cut-off criterion for Coulomb multipole terms:    0.1000000000E-97
 Progressive Convergence parameter:                 0.000000000    
1
 ***************************************************************************************************



                                            ***************************
                                            *  C O M P U T A T I O N  *
                                            ***************************
  

 Number of elements of the density matrix on this node (used, total):        21        21



 ===========================================
 Numerical Integration : Fuzzy Cells (Becke)
 ===========================================
  
 Becke grid quality: VERYGOOD       
  
 Lebedev angular grid order:             min:  13 max:  41
 Nr. of radial points:                   min:  64 max:  64

 Total nr. of points:         64
 Nr. of blocks:                1
 Block length:                64
 Nr. of dummy points:          0


 Test of Precision of the Numerical Integration Grid
 ===================================================

 Integral of the Total Core Density:                   0.00000000000000



 ========================
 Density Fitting (zlmFit)
 ========================
  
 ZlmFit Fit Quality: VERYGOOD       
  
 Max L-expansion:                        min:   0 max:   0
 Nr. of radial interpolation points:     min: 120 max: 120



 =====
 S C F  ***  ScaSCF  ***
 =====
  

 CYCLE    1
 SCF Error: norm([F,P])=      0.000000000000, max([F,P])=      0.000000000000
 orbitals (Q,E):
 ---------------
 S :1...3            ( 1.00    -0.5000)  ( 0.00    -0.0900)  ( 0.00     1.2936)
 P :1...1            ( 0.00     0.1562)

 CYCLE    2
 SCF Error: norm([F,P])=      0.031537872292, max([F,P])=      0.030110494752
 orbitals (Q,E):
 ---------------
 S :1...2            ( 1.00    -0.2218)  ( 0.00     0.1019)
 P :1...1            ( 0.00     0.4189)

 CYCLE    3
  SDIIS (wt  0.000):  0.1996  0.8004
 A-DIIS (wt  1.000):  0.0000  1.0000
  DIIS coefficients:  0.0000  1.0000
 SCF Error: norm([F,P])=      0.008617989401, max([F,P])=      0.008343029399
 orbitals (Q,E):
 ---------------
 S :1...2            ( 1.00    -0.2422)  ( 0.00     0.0889)
 P :1...1            ( 0.00     0.4024)

 CYCLE    4
  SDIIS (wt  0.993):  0.1666  0.8334
 A-DIIS (wt  0.007):  0.0000  1.0000
  DIIS coefficients:  0.1654  0.8346
 SCF Error: norm([F,P])=      0.001732350026, max([F,P])=      0.001718616814
 orbitals (Q,E):
 ---------------
 S :1...2            ( 1.00    -0.2385)  ( 0.00     0.0908)
 P :1...1            ( 0.00     0.4054)

 CYCLE    5
  SDIIS (wt  1.000):  0.0236  0.9764
  DIIS coefficients:  0.0236  0.9764
 SCF Error: norm([F,P])=      0.000043673449, max([F,P])=      0.000039769875
 orbitals (Q,E):
 ---------------
 S :1...2            ( 1.00    -0.2386)  ( 0.00     0.0908)
 P :1...1            ( 0.00     0.4054)

 CYCLE    6
  SDIIS (wt  1.000): -0.0577  1.0577
  DIIS coefficients: -0.0577  1.0577
 SCF Error: norm([F,P])=      0.000002383805, max([F,P])=      0.000002158128
 orbitals (Q,E):
 ---------------
 S :1...2            ( 1.00    -0.2386)  ( 0.00     0.0908)
 P :1...1            ( 0.00     0.4054)

 CYCLE    7
  SDIIS (wt  1.000): -0.0032  1.0032
  DIIS coefficients: -0.0032  1.0032
 SCF Error: norm([F,P])=      0.000000007721, max([F,P])=      0.000000007228
 orbitals (Q,E):
 ---------------
 S :1...2            ( 1.00    -0.2386)  ( 0.00     0.0908)
 P :1...1            ( 0.00     0.4054)

 SCF CONVERGED

 CYCLE    8
1
 ***************************************************************************************************



                                                *******************
                                                *  R E S U L T S  *
                                                *******************
  
 *** Setting up for NEW gradients in Focky
 *** Using FIT density in Focky

 Scaled ZORA Orbital Energies, per Irrep and Spin:
 =================================================
                        Occup              E (au)              E (eV)       Diff (eV) with prev. cycle
                        -----      --------------------        ------       --------------------------
 S
               1        1.000     -0.23861775226993E+00        -6.493               7.43E-09
               2        0.000      0.90791701709264E-01         2.471
               3        0.000      0.15217530108909E+01        41.409
 P
               1        0.000      0.40537978060393E+00        11.031


 Partially Occupied:
               1 S                -0.23861775226993E+00
  
 LUMO :        2 S                 0.90791701709264E-01
  


 Orbital Energies, all Irreps
 ========================================

 Irrep        no.  (spin)   Occup              E (au)                E (eV)
 ---------------------------------------------------------------------------
 S             1             1.00       -0.23861775226993E+00        -6.4931
 S             2             0.00        0.90791701709264E-01         2.4706
 P             1             0.00        0.40537978060393E+00        11.0309
 S             3             0.00        0.15217530108909E+01        41.4090


 All Electron Calculation, thus no Orbital Energies of the Core Orbitals are calculated



 =======================================
 M U L L I K E N   P O P U L A T I O N S
 =======================================
  
 The survey below gives for each atom:
 a) the total charge (Z minus electrons)
 b) the net spin polarization (nr of electrons spin-A minus spin-B)
 c) for each spin the atomic electron valence density (integrated) per L-value.

 Atom              Charge    Spin density          S         P         D         F
 ----              ------    ------------       ------    ------    ------    ------
 1 H              -0.0000                       1.0000    0.0000    0.0000    0.0000

 Populations of individual BAS functions
 ----------------------------------------
 1 H            0.2104  0.6788  0.1107  0.0000  0.0000  0.0000

 Gross Charges per Atom (Z minus electrons)
 ==========================================
            -0.0000
 Net Total: -0.00000000



 =======================================================================
 Electrostatic potential at the Nuclei due to electrons and other nuclei
 =======================================================================
  
         Atom                  Potential
         ----                  ---------
     1)   H                   0.94468022
 
 
 ========================
 No memory problems found
 ========================
 
 Maximum number of active allocate calls:         311
 
 *******************************************************************************

                             A D F   E X I T
 NORMAL TERMINATION



 =================
 Timing Statistics
 =================
  
 Total Used :                     CPU=        0.53      System=        0.04     Elapsed=        0.71

 Calls  Section                     ( Mean, Percentage )
 ---------------------------------------------------------------------------------------------------
     3  ><      ................      0.00    0.22             0.00    0.02             0.00    0.25
     1  INIT    ................      0.02    2.90             0.02   58.49             0.18   24.74
     1  GEOMET  ................      0.01    2.59             0.01   12.38             0.02    2.59
     1  INPUTA  ................      0.00    0.90             0.00    0.00             0.00    0.63
     1  MAINSY  ................      0.01    2.38             0.00    0.36             0.01    1.90
     1  SYMFIT  ................      0.00    0.21             0.00    2.31             0.00    0.31
     1  CORORT  ................      0.00    0.17             0.00    0.33             0.00    0.14
     1  SYMORB  ................      0.00    0.20             0.00    0.00             0.00    0.16
     1  CLSMAT  ................      0.01    1.44             0.00    0.51             0.01    1.14
     1  ORTHON  ................      0.00    0.55             0.00    0.33             0.00    0.42
     1  GENPT   ................      0.02    3.52             0.00    2.65             0.02    2.82
     1  PTBAS   ................      0.01    2.19             0.00    0.28             0.01    1.68
     8  FOCKY   ................      0.04   63.68             0.00   12.89             0.04   48.17
     8  FOCKTR  ................      0.00    1.76             0.00    0.38             0.00    1.44
     8  SDIIS   ................      0.00    4.79             0.00    4.31             0.00    3.97
     1  COREPS  ................      0.03    5.03             0.00    2.44             0.03    3.88
     1  POPAN   ................      0.01    1.13             0.00    0.00             0.01    0.86
     1  DEBYE   ................      0.00    0.24             0.00    0.00             0.00    0.20
     1  EXIT PROCEDURE .........      0.03    6.10             0.00    2.33             0.03    4.71


 Currently Open Files (EXIT00)
 ====================

 Unit    Access Format  Status   Type       Ident (file)
 -------------------------------------------------------
   3      SEQ    FORM   TRANSP  NORMAL      LOGFILE
                                          ( logfile )


 Buffered I/O statistics
 =======================
 Memory available:                     67108864
 Number of records fitting in memory:     16131
 Input :   0.2% of                        15246  *4k bytes
 Output:  18.1% of                          917  *4k bytes
 Records from serial files evicted:           0
                    others evicted:           0
 Hash table lookups:      39097 with          0 conflicts (  0.00%)

 ***************************************************************************************************
 (LOGFILE)
 <Jun13-2018> <15:46:11>  DIRAC 2017  RunTime: Jun13-2018 15:46:11  Nodes: 1  Procs: 1
 <Jun13-2018> <15:46:11>  NORMAL TERMINATION
 <Jun13-2018> <15:46:11>  END
 <Jun13-2018> <15:46:12>  ADF 2017  RunTime: Jun13-2018 15:46:12  Nodes: 1  Procs: 1
 <Jun13-2018> <15:46:12>  Hydrogen (TZP)
 <Jun13-2018> <15:46:12>  RunType   : CREATE
 <Jun13-2018> <15:46:12>  Net Charge: 0 (Nuclei minus Electrons)
 <Jun13-2018> <15:46:12>  Symmetry  : ATOM
  Coordinates
    Atom         X           Y           Z   (Angstrom)
    1.H         0.000000    0.000000    0.000000
 <Jun13-2018> <15:46:12>  >>>> CORORT
 <Jun13-2018> <15:46:12>  >>>> CLSMAT
 <Jun13-2018> <15:46:12>  >>>> ORTHON
 <Jun13-2018> <15:46:12>  >>>> GENPT
 <Jun13-2018> <15:46:12>  Block Length=  64
 <Jun13-2018> <15:46:12>  >>>> PTBAS
 <Jun13-2018> <15:46:12>  >>>> CYCLE
 <Jun13-2018> <15:46:12>              |Error|         MaxErr       Wt(A-DIIS)
 <Jun13-2018> <15:46:12>      1      0.00000000      0.00000000
 <Jun13-2018> <15:46:12>      2      0.03153787      0.03011049
 <Jun13-2018> <15:46:12>      3      0.00861799      0.00834303    100.0
 <Jun13-2018> <15:46:12>      4      0.00173235      0.00171862      0.7
 <Jun13-2018> <15:46:12>      5      0.00004367      0.00003977      0.0
 <Jun13-2018> <15:46:12>      6      0.00000238      0.00000216      0.0
 <Jun13-2018> <15:46:12>      7      0.00000001      0.00000001      0.0
 <Jun13-2018> <15:46:12>  SCF converged
 <Jun13-2018> <15:46:12>      8      0.00000000      0.00000000      0.0
 <Jun13-2018> <15:46:12>  >>>> POPAN
 <Jun13-2018> <15:46:12>  >>>> DEBYE
 <Jun13-2018> <15:46:12>  NORMAL TERMINATION
 <Jun13-2018> <15:46:12>  END

 *******************************************************************************
 *                                                                             *
 *  -------------------------------------                                      *
 *   Amsterdam Density Functional  (ADF)         2017                          *
 *  -------------------------------------                                      *
 *                                               r61155 2017-09-11             *
 *                                                                             *
 *                                                                             *
 *                            =====================                            *
 *                            |                   |                            *
 *                            |     D I R A C     |                            *
 *                            |                   |                            *
 *                            =====================                            *
 *                                                                             *
 *                                                                             *
 *   Online information and documentation:  https://www.scm.com/support/       *
 *   E-mail:  support@scm.com   info@scm.com                                   *
 *                                                                             *
 *   Scientific publications using ADF results must be properly referenced     *
 *   See the User Manuals (or the web site) for recommended citations          *
 *   The terms and conditions of the End User License Agreement apply to       *
 *   the use of ADF, https://www.scm.com/license-terms/                        *
 *                                                                             *
 ***********************  x86_64_linux_intel / openmpi  ************************
 
 Licensed to: Prof. Pere Miro / University of South Dakota, Department of Chemistry / Vermillion / SD / USA
 SCM User ID: u19501
  
 DIRAC 2017  RunTime: Jun13-2018 15:46:13  Nodes: 1  Procs: 1

 Temporary files are created in /tmp/24723/kid_0.D77ab9

1
 OXYGEN ATOM 1s CORE RELATIVISTIC, Point Nuc, A and c from li
 N J RN H ZN XION ANUC CLIGHT
 5000    4100.00000000197.36710137  8.00000000  0.00000000   15.994914  0.1370360E+03
  PH   PHI     EPS        DEL        DELRVR
  0.30  0.30     2500.00  0.00001000  0.00001000
 IDIRC  NC1  NDEBU NPRIN  IPUN IRCOR IWCOR
   1   300     0     0     0     0     1
   XALPHA      XLATTER      RNUC
  0.70000000  0.00000000  0.00000000 Point Charge
   XN   XL   XJ      XE          XZ      XDELL
  1.0  0.0  0.5      -5.000       2.000     0.00000
  2.0  0.0  0.5      -1.000       2.000     0.00000
  2.0  1.0  0.5      -1.000       2.000     0.00000
  2.0  1.0  1.5      -1.000       2.000     0.00000
 ICORP=  0  NPCL=  0  DEMP=0.00  PEPS=0.000000
 R(1)=  0.1000000E-08 D=  0.1005080E+01 RNUC=  0.0000000E+00
 converged at cycle   28  DENSITY AVERAGING    0.2400
  MAXIMUM ERROR IN R.V(R) IS   0.81125670E-05
 Q,EY,EV,EZ,ESUM,ETOT,RHO  0.800000E+01 -0.101247E+02 -0.114961E+03 -0.177573E+03 -0.405053E+02 -0.743427E+02  0.414766E-14


 DIRAC CALCULATION
1                    OXYGEN ATOM 1s CORE RELATIVISTIC, Point Nuc, A and c from libtc


 EXCHANGE COEFFICIENT=  0.7000000           TAIL CORRECTION=  0.           NUCLEAR RADIUS=  0.000E+00
0                       ORBITAL    N    L    J     ELECTRONS     EIGENVALUE                DELTA OF EIGENV.

                          1S1/2  1.0  0.0  0.5     2.000       -0.1880014E+02                 0.7264359E-06
                          2S1/2  2.0  0.0  0.5     2.000       -0.8412236E+00                 0.5932752E-05
                          2P1/2  2.0  1.0  0.5     2.000       -0.3063203E+00                 0.5998471E-05
                          2P3/2  2.0  1.0  1.5     2.000       -0.3049609E+00                 0.5986971E-05


                                        NUCLEAR CHARGE=    8.000000
                            INTEGRAL OF CHARGE DENSITY=    8.000000
                           SUM OF THE ORBITAL ENERGIES=    -40.5053
                                          TOTAL ENERGY=    -74.3427
                                        KINETIC ENERGY=     74.4552
                             NUCLEAR ATTRACTION ENERGY=   -177.5730
                             ELECTRON REPULSION ENERGY=     36.3686
                                       EXCHANGE ENERGY=     -7.5935

 *******************************************************************************

                             D I R A C   E X I T
 NORMAL TERMINATION



 =================
 Timing Statistics
 =================
  
 Total Used :                     CPU=        0.16      System=        0.03     Elapsed=        0.37

 Calls  Section                     ( Mean, Percentage )
 ---------------------------------------------------------------------------------------------------
     2  ><      ................      0.00    0.01             0.00    0.02             0.00    0.00
     1  EXIT PROCEDURE .........      0.16   99.99             0.03   99.98             0.37  100.00


 Currently Open Files (EXIT00)
 ====================

 Unit    Access Format  Status   Type       Ident (file)
 -------------------------------------------------------
   3      SEQ    FORM   TRANSP  NORMAL      LOGFILE
                                          ( logfile )


 Buffered I/O statistics
 =======================
 Memory available:                     67108864
 Number of records fitting in memory:     16131
 Input : 100.0% of                            0  *4k bytes
 Output: 100.0% of                            0  *4k bytes
 Records from serial files evicted:           0
                    others evicted:           0
 Hash table lookups:          0 with          0 conflicts (100.00%)

Create O   file=TZP-O.1s
XC
GGA PBE
End
relativistic ZORA
Corepotentials t12.rel
End Input

 *******************************************************************************
 *                                                                             *
 *  -------------------------------------                                      *
 *   Amsterdam Density Functional  (ADF)         2017                          *
 *  -------------------------------------                                      *
 *                                               r61155 2017-09-11             *
 *                                                                             *
 *                                                                             *
 *                              =================                              *
 *                              |               |                              *
 *                              |     A D F     |                              *
 *                              |               |                              *
 *                              =================                              *
 *                                                                             *
 *                                                                             *
 *   Online information and documentation:  https://www.scm.com/support/       *
 *   E-mail:  support@scm.com   info@scm.com                                   *
 *                                                                             *
 *   Scientific publications using ADF results must be properly referenced     *
 *   See the User Manuals (or the web site) for recommended citations          *
 *   The terms and conditions of the End User License Agreement apply to       *
 *   the use of ADF, https://www.scm.com/license-terms/                        *
 *                                                                             *
 ***********************  x86_64_linux_intel / openmpi  ************************
 
 Licensed to: Prof. Pere Miro / University of South Dakota, Department of Chemistry / Vermillion / SD / USA
 SCM User ID: u19501
  
 ADF 2017  RunTime: Jun13-2018 15:46:14  Nodes: 1  Procs: 1

 Temporary files are created in /tmp/24723/kid_0.Z6K02q

 Oxygen (TZP, 1s frozen)



 ===========================
 A T T A C H E D   F I L E S
 ===========================
  
 CREATE - Data File:    TZP-O.1s
                        Oxygen (TZP, 1s frozen)
 Core Potentials:
         file : t12.rel



 ===============================
 M O D E L   P A R A M E T E R S
 ===============================
  
 DENSITY FUNCTIONAL POTENTIAL (scf)
    LDA:                               PW92                                    == Not Default ==
    Gradient Corrections:              PBEc PBEx                               == Not Default ==

 SPIN  (restricted / unrestr.)
    Molecule:                          Restricted                               

 OTHER ASPECTS
    Relativistic Corrections:          scalar (ZORA,MAPA)                      == Not Default ==

    Nuclear Charge Density Model:      Point Charge Nuclei                      
    Core Treatment:                    Frozen Orbital(s)                        

    Hyperfine or Zeeman Interaction:   ---                                      



 =====================================
 S Y M M E T R Y ,   E L E C T R O N S
 =====================================
  
 Symmetry: ATOM

 Irreducible Representations, including subspecies
 -------------------------------------------------
 S
 P:x  P:y  P:z
 D:z2  D:x2-y2  D:xy  D:xz  D:yz
 F:z3  F:z  F:xyz  F:z2x  F:z2y  F:x  F:y


 Configuration of Valence Electrons
 ==================================

          Occupation Numbers
          -------------------------------------------------
 S        2
 P        4
 D        0
 F        0
          -------------------------------------------------

 Total:   6

 Net Charge: 0 (Nuclei minus Electrons)

 Preset values for MO occupations will be applied through SCF cycle no. 1000000
 Thereafter, the program will assign electrons to MOs that are spatially
 similar to the occupied MOs in a "reference" cycle ("KeepOrbitals").
 The reference cycle is always the PREVIOUS cycle: it will evolve with
 the SCF procedure.



 ================================
 (Slater-type)  F U N C T I O N S  ***  (Basis and Fit)  ***
 ================================
  

 Atom Type    1  (O)
 ==============

 Valence Basis Sets:   8
 -----------------------
   1 S    7.360000
   2 S    1.720000
   2 S    2.880000
   2 S    7.580000
   2 P    1.120000
   2 P    2.080000
   2 P    4.080000
   3 D    2.000000

 Frozen Core Shells
 ------------------
    S:  1


 BAS: List of all Elementary Cartesian Basis Functions
 =====================================================

 The numbering in the list below (to the right of the function characteristics) is referred
 to in print-outs of MO eigenvectors and Mulliken populations in the BAS representation
 (as contrasted to the SFO representation).

 Notes:
 1. The functions are characterized by a polynomial prefactor (powers of x,y,z and r) and
    an exponential decay factor alpha.
 2. Since the basis sets are specific for an atom TYPE, the individual functions occur on
    all atoms of that type.
 3. The word 'Core' in the left margin signals that it is a Core Function (CF) : not a
    degree of freedom in the valence set, but only used to ensure orthogonalization of
    the other valence basis functions on the frozen Core Orbitals.


 (power of) X  Y  Z  R     Alpha  on Atom
            ==========     =====     ==========

 O                                    1
                                  ---------------------------------------------------------------------------
    Core    0  0  0  0     7.360      1
            0  0  0  1     1.720      2
            0  0  0  1     2.880      3
            0  0  0  1     7.580      4
            1  0  0  0     1.120      5
            0  1  0  0     1.120      6
            0  0  1  0     1.120      7
            1  0  0  0     2.080      8
            0  1  0  0     2.080      9
            0  0  1  0     2.080     10
            1  0  0  0     4.080     11
            0  1  0  0     4.080     12
            0  0  1  0     4.080     13
            2  0  0  0     2.000     14
            1  1  0  0     2.000     15
            1  0  1  0     2.000     16
            0  2  0  0     2.000     17
            0  1  1  0     2.000     18
            0  0  2  0     2.000     19

 Total number of charge fitting functions (nprimf)        82
 Total number of Cartesian basis functions (naos)         19
 Total number of Cartesian core functions  (ncos)          1



 BAS: List of all Elementary Cartesian Basis Functions
 =====================================================

 The numbering in the list below (to the right of the function characteristics) is referred
 to in print-outs of MO eigenvectors and Mulliken populations in the BAS representation
 (as contrasted to the SFO representation).

 Notes:
 1. The functions are characterized by a polynomial prefactor (powers of x,y,z and r) and
    an exponential decay factor alpha.
 2. Since the basis sets are specific for an atom TYPE, the individual functions occur on
    all atoms of that type.
 3. The word 'Core' in the left margin signals that it is a Core Function (CF) : not a
    degree of freedom in the valence set, but only used to ensure orthogonalization of
    the other valence basis functions on the frozen Core Orbitals.


 (power of) X  Y  Z  R     Alpha  on Atom
            ==========     =====     ==========

 O                                    1
                                  ---------------------------------------------------------------------------
    Core    0  0  0  0     7.360      1
            0  0  0  1     1.720      2
            0  0  0  1     2.880      3
            0  0  0  1     7.580      4
            1  0  0  0     1.120      5
            0  1  0  0     1.120      6
            0  0  1  0     1.120      7
            1  0  0  0     2.080      8
            0  1  0  0     2.080      9
            0  0  1  0     2.080     10
            1  0  0  0     4.080     11
            0  1  0  0     4.080     12
            0  0  1  0     4.080     13
            2  0  0  0     2.000     14
            1  1  0  0     2.000     15
            1  0  1  0     2.000     16
            0  2  0  0     2.000     17
            0  1  1  0     2.000     18
            0  0  2  0     2.000     19
1
 ***************************************************************************************************



                                              ***********************
                                              *  T E C H N I C A L  *
                                              ***********************
  



 =============================================================
 P A R A L L E L I Z A T I O N  and  V E C T O R I Z A T I O N
 =============================================================
  
 Nr of parallel processes:                                1
 Maximum vector length in NumInt loops:                 128

 IO buffersize (Mb):                                     64.000000



 =====================
 S C F   U P D A T E S
 =====================
  
 Max. nr. of cycles:                               300
 Convergence criterion:                              0.0000000100
   secondary criterion:                              0.0000000100

 Mix parameter (when DIIS does not apply):           0.2000000000
 Special mix parameter for the first cycle:          1.0000000000
 Mixed ADIIS+DIIS will be used
    Max number of expansion vectors:                10
    Pure ADIIS when Max([F,P]) is above              0.1000000000
    Pure DIIS when Max([F,P]) is below               0.0010000000
 Automatic ElectronSmearing (in case of problematic SCF convergence) disabled



 =================
 P R E C I S I O N  ***  (General: NumInt, NeglectFunctionTails, ...)  ***
 =================
  

 NumInt:           Target precision:                12.0000000000
 -------           Initial precision:               10.0000000000
                   Min. precision (optimization):   10.0000000000

 Neglect Functions:          Basis functions:        0.1000000000E-13
 ------------------          Fit functions:          0.1000000000E-13



 ===========================
 L I N E A R   S C A L I N G
 ===========================
  

 Cut-off radii density fit:                        0.1000000000E-97
 Overlap cut-off criterion AO matrix elements:     0.1000000000E-97
 Cut-offs for Coulomb potential and fitted density:0.1000000000E-97
 Cut-off criterion for Coulomb multipole terms:    0.1000000000E-97
 Progressive Convergence parameter:                 0.000000000    
1
 ***************************************************************************************************



                                            ***************************
                                            *  C O M P U T A T I O N  *
                                            ***************************
  

 Number of elements of the density matrix on this node (used, total):       190       190



 ===========================================
 Numerical Integration : Fuzzy Cells (Becke)
 ===========================================
  
 Becke grid quality: VERYGOOD       
  
 Lebedev angular grid order:             min:  13 max:  41
 Nr. of radial points:                   min:  68 max:  68

 Total nr. of points:         68
 Nr. of blocks:                1
 Block length:                68
 Nr. of dummy points:          0


 Test of Precision of the Numerical Integration Grid
 ===================================================

 Integral of the Total Core Density:                   1.99999999865610
 Relative Error:                                      -6.720E-10



 ========================
 Density Fitting (zlmFit)
 ========================
  
 ZlmFit Fit Quality: VERYGOOD       
  
 Max L-expansion:                        min:   0 max:   0
 Nr. of radial interpolation points:     min: 140 max: 140



 =====
 S C F  ***  ScaSCF  ***
 =====
  

 CYCLE    1
 SCF Error: norm([F,P])=      0.000000000000, max([F,P])=      0.000000000000
 orbitals (Q,E):
 ---------------
 S :1...3            ( 2.00    -5.3654)  ( 0.00    -2.2073)  ( 0.00    23.6692)
 P :1...3            ( 4.00    -5.0045)  ( 0.00    -2.0150)  ( 0.00    -0.3846)
 D :1...1            ( 0.00    -2.0410)

 CYCLE    2
 SCF Error: norm([F,P])=      4.562993374874, max([F,P])=      2.528971113813
 orbitals (Q,E):
 ---------------
 S :1...2            ( 2.00    -0.1548)  ( 0.00     1.6948)
 P :1...2            ( 4.00     0.1773)  ( 0.00     0.9552)
 D :1...1            ( 0.00     1.4649)

 CYCLE    3
  SDIIS (wt  0.000):  0.3378  0.6622
 A-DIIS (wt  1.000):  0.4814  0.5186
  DIIS coefficients:  0.4814  0.5186
 SCF Error: norm([F,P])=      2.723155250500, max([F,P])=      1.798667049295
 orbitals (Q,E):
 ---------------
 S :1...2            ( 2.00    -1.1093)  ( 0.00     0.7549)
 P :1...2            ( 4.00    -0.5518)  ( 0.00     0.2590)
 D :1...1            ( 0.00     0.8910)

 CYCLE    4
  SDIIS (wt  0.000):  0.0919  0.9081
 A-DIIS (wt  1.000):  0.0000  1.0000
  DIIS coefficients:  0.0000  1.0000
 SCF Error: norm([F,P])=      0.289027138405, max([F,P])=      0.130648623511
 orbitals (Q,E):
 ---------------
 S :1...2            ( 2.00    -0.7707)  ( 0.00     0.9912)
 P :1...2            ( 4.00    -0.2284)  ( 0.00     0.4046)
 D :1...1            ( 0.00     1.1288)

 CYCLE    5
  SDIIS (wt  0.000):  0.0260  0.6740  0.3001
 A-DIIS (wt  1.000):  0.0000  0.5764  0.4236
  DIIS coefficients:  0.0000  0.5764  0.4236
 SCF Error: norm([F,P])=      0.416615089426, max([F,P])=      0.232643669786
 orbitals (Q,E):
 ---------------
 S :1...2            ( 2.00    -0.8764)  ( 0.00     0.9107)
 P :1...2            ( 4.00    -0.3280)  ( 0.00     0.3557)
 D :1...1            ( 0.00     1.0703)

 CYCLE    6
  SDIIS (wt  0.942):  0.0005  0.0237 -0.0203  0.9960
 A-DIIS (wt  0.058):  0.0000  0.0000  0.0000  1.0000
  DIIS coefficients:  0.0005  0.0224 -0.0191  0.9962
 SCF Error: norm([F,P])=      0.013723272809, max([F,P])=      0.006719036732
 orbitals (Q,E):
 ---------------
 S :1...2            ( 2.00    -0.8830)  ( 0.00     0.9058)
 P :1...2            ( 4.00    -0.3343)  ( 0.00     0.3521)
 D :1...1            ( 0.00     1.0657)

 CYCLE    7
  SDIIS (wt  1.000): -0.0000  0.0016  0.0023  0.0424  0.9537
  DIIS coefficients: -0.0000  0.0016  0.0023  0.0424  0.9537
 SCF Error: norm([F,P])=      0.001103645928, max([F,P])=      0.000634039171
 orbitals (Q,E):
 ---------------
 S :1...2            ( 2.00    -0.8827)  ( 0.00     0.9060)
 P :1...2            ( 4.00    -0.3340)  ( 0.00     0.3523)
 D :1...1            ( 0.00     1.0659)

 CYCLE    8
  SDIIS (wt  1.000): -0.0000 -0.0001  0.0000 -0.0032  0.0268  0.9765
  DIIS coefficients: -0.0000 -0.0001  0.0000 -0.0032  0.0268  0.9765
 SCF Error: norm([F,P])=      0.000035919804, max([F,P])=      0.000020263969
 orbitals (Q,E):
 ---------------
 S :1...2            ( 2.00    -0.8827)  ( 0.00     0.9060)
 P :1...2            ( 4.00    -0.3340)  ( 0.00     0.3522)
 D :1...1            ( 0.00     1.0659)

 CYCLE    9
  SDIIS (wt  1.000): -0.0000  0.0008  0.0188  0.9804
  DIIS coefficients: -0.0000  0.0008  0.0188  0.9804
 SCF Error: norm([F,P])=      0.000000326379, max([F,P])=      0.000000183921
 orbitals (Q,E):
 ---------------
 S :1...2            ( 2.00    -0.8827)  ( 0.00     0.9060)
 P :1...2            ( 4.00    -0.3340)  ( 0.00     0.3522)
 D :1...1            ( 0.00     1.0659)

 CYCLE   10
  SDIIS (wt  1.000):  0.0000  0.0003  0.9996
  DIIS coefficients:  0.0000  0.0003  0.9996
 SCF Error: norm([F,P])=      0.000000000559, max([F,P])=      0.000000000306
 orbitals (Q,E):
 ---------------
 S :1...2            ( 2.00    -0.8827)  ( 0.00     0.9060)
 P :1...2            ( 4.00    -0.3340)  ( 0.00     0.3522)
 D :1...1            ( 0.00     1.0659)

 SCF CONVERGED

 CYCLE   11
1
 ***************************************************************************************************



                                                *******************
                                                *  R E S U L T S  *
                                                *******************
  
 *** Setting up for NEW gradients in Focky
 *** Using FIT density in Focky

 Scaled ZORA Orbital Energies, per Irrep and Spin:
 =================================================
                        Occup              E (au)              E (eV)       Diff (eV) with prev. cycle
                        -----      --------------------        ------       --------------------------
 S
               1        2.000     -0.88272313143210E+00       -24.020              -9.23E-11
               2        0.000      0.90601345014671E+00        24.654
               3        0.000      0.29578810816936E+02       804.880
 P
               1        4.000     -0.33400585272067E+00        -9.089              -8.90E-11
               2        0.000      0.35224911365995E+00         9.585
               3        0.000      0.38342927625315E+01       104.336
 D
               1        0.000      0.10658965783141E+01        29.005


 Partially Occupied:
               1 P                -0.33400585272067E+00
  
 HOMO :        1 S                -0.88272313143210E+00
 LUMO :        2 P                 0.35224911365995E+00
  


 Orbital Energies, all Irreps
 ========================================

 Irrep        no.  (spin)   Occup              E (au)                E (eV)
 ---------------------------------------------------------------------------
 S             1             2.00       -0.88272313143210E+00       -24.0201
 P             1             4.00       -0.33400585272067E+00        -9.0888
 P             2             0.00        0.35224911365995E+00         9.5852
 S             2             0.00        0.90601345014671E+00        24.6539
 D             1             0.00        0.10658965783141E+01        29.0045
 P             3             0.00        0.38342927625315E+01       104.3364
 S             3             0.00        0.29578810816936E+02       804.8804


 Scaled ZORA Orbital Energies of the Core Orbitals:
 ==================================================

 (Note that the atoms are grouped by atomtype, see the labels, and may hence NOT be in input order)

 AtomType  Orbital  Atom                   E (au)                        E (eV)
 --------  -------  ----           --------------------        ----------------
 O           1S        1          -0.18925919758630E+02                -515.000



 =======================================
 M U L L I K E N   P O P U L A T I O N S
 =======================================
  
 The survey below gives for each atom:
 a) the total charge (Z minus electrons)
 b) the net spin polarization (nr of electrons spin-A minus spin-B)
 c) for each spin the atomic electron valence density (integrated) per L-value.

 Atom              Charge    Spin density          S         P         D         F
 ----              ------    ------------       ------    ------    ------    ------
 1 O               0.0000                       2.0000    4.0000    0.0000    0.0000

 Populations of individual BAS functions
 ----------------------------------------
 1 O            0.0005  0.9226  1.0966 -0.0196  0.3346  0.3346  0.3346  0.7512  0.7512  0.7512
                0.2476  0.2476  0.2476  0.0000  0.0000  0.0000  0.0000  0.0000  0.0000

 Gross Charges per Atom (Z minus electrons)
 ==========================================
             0.0000
 Net Total:  0.00000000



 =======================================================================
 Electrostatic potential at the Nuclei due to electrons and other nuclei
 =======================================================================
  
         Atom                  Potential
         ----                  ---------
     1)   O                  22.20265662
 
 
 ========================
 No memory problems found
 ========================
 
 Maximum number of active allocate calls:         394
 
 *******************************************************************************

                             A D F   E X I T
 NORMAL TERMINATION



 =================
 Timing Statistics
 =================
  
 Total Used :                     CPU=        0.70      System=        0.05     Elapsed=        0.89

 Calls  Section                     ( Mean, Percentage )
 ---------------------------------------------------------------------------------------------------
     3  ><      ................      0.00    0.13             0.00    1.97             0.00    0.25
     1  INIT    ................      0.02    2.60             0.03   53.68             0.18   20.11
     1  GEOMET  ................      0.01    1.30             0.00    6.28             0.01    1.41
     1  INPUTA  ................      0.00    0.68             0.00    0.07             0.00    0.52
     1  MAINSY  ................      0.01    1.75             0.00    4.78             0.02    1.69
     1  SYMFIT  ................      0.00    0.16             0.00    2.31             0.00    0.25
     1  CORORT  ................      0.00    0.00             0.00    1.85             0.00    0.11
     1  SYMORB  ................      0.00    0.12             0.00    0.14             0.00    0.11
     1  CLSMAT  ................      0.01    0.86             0.00    0.20             0.01    0.70
     1  ORTHON  ................      0.00    0.37             0.00    1.94             0.00    0.40
     1  GENPT   ................      0.03    3.79             0.00    4.29             0.03    3.24
     1  PTBAS   ................      0.01    1.69             0.00    0.05             0.01    1.37
    11  FOCKY   ................      0.04   66.72             0.00   13.46             0.04   53.38
    11  FOCKTR  ................      0.00    2.14             0.00    2.14             0.00    1.84
    11  SDIIS   ................      0.00    5.49             0.00    0.49             0.00    4.61
     1  COREPS  ................      0.04    5.32             0.00    2.07             0.04    4.32
     1  POPAN   ................      0.01    1.32             0.00    0.11             0.01    1.06
     1  DEBYE   ................      0.00    0.20             0.00    0.01             0.00    0.18
     1  EXIT PROCEDURE .........      0.04    5.35             0.00    4.16             0.04    4.47


 Currently Open Files (EXIT00)
 ====================

 Unit    Access Format  Status   Type       Ident (file)
 -------------------------------------------------------
   3      SEQ    FORM   TRANSP  NORMAL      LOGFILE
                                          ( logfile )


 Buffered I/O statistics
 =======================
 Memory available:                     67108864
 Number of records fitting in memory:     16131
 Input :   0.1% of                        21870  *4k bytes
 Output:  16.3% of                         1151  *4k bytes
 Records from serial files evicted:           0
                    others evicted:           0
 Hash table lookups:      56530 with          0 conflicts (  0.00%)

 ***************************************************************************************************
 (LOGFILE)
 <Jun13-2018> <15:46:11>  DIRAC 2017  RunTime: Jun13-2018 15:46:11  Nodes: 1  Procs: 1
 <Jun13-2018> <15:46:11>  NORMAL TERMINATION
 <Jun13-2018> <15:46:11>  END
 <Jun13-2018> <15:46:12>  ADF 2017  RunTime: Jun13-2018 15:46:12  Nodes: 1  Procs: 1
 <Jun13-2018> <15:46:12>  Hydrogen (TZP)
 <Jun13-2018> <15:46:12>  RunType   : CREATE
 <Jun13-2018> <15:46:12>  Net Charge: 0 (Nuclei minus Electrons)
 <Jun13-2018> <15:46:12>  Symmetry  : ATOM
  Coordinates
    Atom         X           Y           Z   (Angstrom)
    1.H         0.000000    0.000000    0.000000
 <Jun13-2018> <15:46:12>  >>>> CORORT
 <Jun13-2018> <15:46:12>  >>>> CLSMAT
 <Jun13-2018> <15:46:12>  >>>> ORTHON
 <Jun13-2018> <15:46:12>  >>>> GENPT
 <Jun13-2018> <15:46:12>  Block Length=  64
 <Jun13-2018> <15:46:12>  >>>> PTBAS
 <Jun13-2018> <15:46:12>  >>>> CYCLE
 <Jun13-2018> <15:46:12>              |Error|         MaxErr       Wt(A-DIIS)
 <Jun13-2018> <15:46:12>      1      0.00000000      0.00000000
 <Jun13-2018> <15:46:12>      2      0.03153787      0.03011049
 <Jun13-2018> <15:46:12>      3      0.00861799      0.00834303    100.0
 <Jun13-2018> <15:46:12>      4      0.00173235      0.00171862      0.7
 <Jun13-2018> <15:46:12>      5      0.00004367      0.00003977      0.0
 <Jun13-2018> <15:46:12>      6      0.00000238      0.00000216      0.0
 <Jun13-2018> <15:46:12>      7      0.00000001      0.00000001      0.0
 <Jun13-2018> <15:46:12>  SCF converged
 <Jun13-2018> <15:46:12>      8      0.00000000      0.00000000      0.0
 <Jun13-2018> <15:46:12>  >>>> POPAN
 <Jun13-2018> <15:46:12>  >>>> DEBYE
 <Jun13-2018> <15:46:12>  NORMAL TERMINATION
 <Jun13-2018> <15:46:12>  END
 <Jun13-2018> <15:46:13>  DIRAC 2017  RunTime: Jun13-2018 15:46:13  Nodes: 1  Procs: 1
 <Jun13-2018> <15:46:13>  NORMAL TERMINATION
 <Jun13-2018> <15:46:13>  END
 <Jun13-2018> <15:46:14>  ADF 2017  RunTime: Jun13-2018 15:46:14  Nodes: 1  Procs: 1
 <Jun13-2018> <15:46:14>  Oxygen (TZP, 1s frozen)
 <Jun13-2018> <15:46:14>  RunType   : CREATE
 <Jun13-2018> <15:46:14>  Net Charge: 0 (Nuclei minus Electrons)
 <Jun13-2018> <15:46:14>  Symmetry  : ATOM
  Coordinates
    Atom         X           Y           Z   (Angstrom)
    1.O         0.000000    0.000000    0.000000
 <Jun13-2018> <15:46:14>  >>>> CORORT
 <Jun13-2018> <15:46:14>  >>>> CLSMAT
 <Jun13-2018> <15:46:14>  >>>> ORTHON
 <Jun13-2018> <15:46:14>  >>>> GENPT
 <Jun13-2018> <15:46:14>  Block Length=  68
 <Jun13-2018> <15:46:14>  >>>> PTBAS
 <Jun13-2018> <15:46:14>  >>>> CYCLE
 <Jun13-2018> <15:46:14>              |Error|         MaxErr       Wt(A-DIIS)
 <Jun13-2018> <15:46:14>      1      0.00000000      0.00000000
 <Jun13-2018> <15:46:14>      2      4.56299337      2.52897111
 <Jun13-2018> <15:46:14>      3      2.72315525      1.79866705    100.0
 <Jun13-2018> <15:46:14>      4      0.28902714      0.13064862    100.0
 <Jun13-2018> <15:46:15>      5      0.41661509      0.23264367    100.0
 <Jun13-2018> <15:46:15>      6      0.01372327      0.00671904      5.8
 <Jun13-2018> <15:46:15>      7      0.00110365      0.00063404      0.0
 <Jun13-2018> <15:46:15>      8      0.00003592      0.00002026      0.0
 <Jun13-2018> <15:46:15>      9      0.00000033      0.00000018      0.0
 <Jun13-2018> <15:46:15>     10      0.00000000      0.00000000      0.0
 <Jun13-2018> <15:46:15>  SCF converged
 <Jun13-2018> <15:46:15>     11      0.00000000      0.00000000      0.0
 <Jun13-2018> <15:46:15>  >>>> POPAN
 <Jun13-2018> <15:46:15>  >>>> DEBYE
 <Jun13-2018> <15:46:15>  NORMAL TERMINATION
 <Jun13-2018> <15:46:15>  END


 Parallel Execution: Process Information
 ==============================================================================
 Rank   Node Name                              NodeID   MyNodeRank  NodeMaster
    0   node60.cluster                            0          0          0
    1   node60.cluster                            0          1         -1
    2   node60.cluster                            0          2         -1
    3   node60.cluster                            0          3         -1
    4   node60.cluster                            0          4         -1
    5   node60.cluster                            0          5         -1
    6   node60.cluster                            0          6         -1
    7   node60.cluster                            0          7         -1
 ==============================================================================


May use up to 45372MB of RAM as shared memory on node 0

symmetry nosym
Atoms
O          -0.49776117    -0.05124451   -0.00651605
H           0.46223883    -0.05124451   -0.00651605
O          -0.93838623     1.19304226   -0.00651605
End

Charge -1 0

Solvation
solv name=water
RADII
O=1.52
H=1.10
subend
end

relativistic scalar ZORA

BeckeGrid
 Quality good
End

Geometry
  Optim cartesian
End

XC
GGA PBE
END

analyticalfreq
end

Fragments
H t21.H
O t21.O
End
end input

 *******************************************************************************
 *                                                                             *
 *  -------------------------------------                                      *
 *   Amsterdam Density Functional  (ADF)         2017                          *
 *  -------------------------------------                                      *
 *                                               r61155 2017-09-11             *
 *                                                                             *
 *                                                                             *
 *                              =================                              *
 *                              |               |                              *
 *                              |     A D F     |                              *
 *                              |               |                              *
 *                              =================                              *
 *                                                                             *
 *                                                                             *
 *   Online information and documentation:  https://www.scm.com/support/       *
 *   E-mail:  support@scm.com   info@scm.com                                   *
 *                                                                             *
 *   Scientific publications using ADF results must be properly referenced     *
 *   See the User Manuals (or the web site) for recommended citations          *
 *   The terms and conditions of the End User License Agreement apply to       *
 *   the use of ADF, https://www.scm.com/license-terms/                        *
 *                                                                             *
 ***********************  x86_64_linux_intel / openmpi  ************************
 
 Licensed to: Prof. Pere Miro / University of South Dakota, Department of Chemistry / Vermillion / SD / USA
 SCM User ID: u19501
  
 ADF 2017  RunTime: Jun13-2018 15:46:17  Nodes: 1  Procs: 8

 Temporary files are created in /tmp/24723/kid_0.QOlszp


Communication costs MPI_COMM_WORLD:      1.578 usec per message,   0.0138 usec per 8-byte item
Communication costs for intra-node:      1.237 usec per message,   0.0138 usec per 8-byte item

 *** (NO TITLE) ***



 ===========================
 A T T A C H E D   F I L E S
 ===========================
  



 ===============================
 M O D E L   P A R A M E T E R S
 ===============================
  
 DENSITY FUNCTIONAL POTENTIAL (scf)
    LDA:                               PW92                                    == Not Default ==
    Gradient Corrections:              PBEc PBEx                               == Not Default ==

 SPIN  (restricted / unrestr.)
    Molecule:                          Restricted                               
    Fragments:                         Restricted                               

 OTHER ASPECTS
    Relativistic Corrections:          scalar (ZORA,MAPA)                      == Not Default ==

    Nuclear Charge Density Model:      Point Charge Nuclei                      
    Core Treatment:                    Frozen Orbital(s)                        

    Hyperfine or Zeeman Interaction:   ---                                      

 SOLVATION
-------------------------------------------

  The Delley construction of COSMO surface surface is calculated

       Division Level for Surface Triangles (NDIV)                  3
       Final Division Level for Triangles (NFDIV)                   1
       Radius of the Solvent (RSOL)                           1.93000 angstr
  Dielectric Constant (EPSL)                                 78.39000

       COSMO equation is solved iteratively-               conjugate-gradient

       Maximun of Iterations for Charges (NCIX)                  1000
       Criterion for Charge convergence (CCNV)                1.0E-08

  COSMO charges included variationally in SCF

       COSMO included at every SCF cycle

  Geometry-dependent empirical factor                         0.00000

  C-Matrix calculated in cspmtx

  In cspmtx, C-Matrix calculated using fitted potential

-------------------------------------------



 Fragment File(s)
 ----------------
 O:
         file : t21.O
         jobid: ADF 2017  RunTime: Jun13-2018 15:46:14  Nodes: 1  Procs: 1
         title: Oxygen (TZP, 1s frozen)
 H:
         file : t21.H
         jobid: ADF 2017  RunTime: Jun13-2018 15:46:12  Nodes: 1  Procs: 1
         title: Hydrogen (TZP)



                                   *********************************************
                                   *  R U N   T Y P E : GEOMETRY OPTIMIZATION  *
                                   *********************************************
  



 ===============
 G E O M E T R Y  ***  Planar Molecule  ***
 ===============
  

 ATOMS
 =====                            X Y Z                    CHARGE                     RADIUS
                                (Angstrom)             Nucl     +Core       At.Mass (Angstrom)
                       --------------------------    ----------------       ------- ----------
    1  O              -0.4978   -0.0512   -0.0065      8.00      6.00       15.9949    1.5200
    2  H               0.4622   -0.0512   -0.0065      1.00      1.00        1.0078    1.1000
    3  O              -0.9384    1.1930   -0.0065      8.00      6.00       15.9949    1.5200


 FRAGMENTS
 =========                                     Atoms in this Fragment     Cart. coord.s (Angstrom)
                                               -------------------------------------------------------
    1  O                                                 1  O           -0.4978   -0.0512   -0.0065
    2  O                                                 3  O           -0.9384    1.1930   -0.0065
    3  H                                                 2  H            0.4622   -0.0512   -0.0065


 Interatomic Distance Matrix (Angstrom)
 --------------------------------------

   1)     0.000
   2)     0.960   0.000
   3)     1.320   1.873   0.000

 Min. Distance =    0.9600
 Max. Distance =    1.8735



 =====================================
 S Y M M E T R Y ,   E L E C T R O N S
 =====================================
  
 Symmetry: NOSYM

 Irreducible Representations, including subspecies
 -------------------------------------------------
 A


 Configuration of Valence Electrons
 ==================================
 ( determined in the SCF procedure )

 Total:   14

 Net Charge: -1 (Nuclei minus Electrons)

 Aufbau principle for MO occupations will be applied through SCF cycle no.     150
 Thereafter, the program will assign electrons to MOs that are spatially
 similar to the occupied MOs in a "reference" cycle ("KeepOrbitals").
 The reference cycle is always the PREVIOUS cycle: it will evolve with
 the SCF procedure.
1
 ***************************************************************************************************



                                      ****************************************
                                      *  B U I L D : (Fragments, Functions)  *
                                      ****************************************
  



 =======
 S F O s  ***  (Symmetrized Fragment Orbitals)  ***
 =======
  
 SFOs are linear combinations of (valence) Fragment Orbitals (FOs), such that the SFOs transform as the
 irreducible representations of the (molecular) symmetry group. Each SFO is therefore characterized by
 an irrep of the molecule and by a few (or only one) generating FOs.
 The SFOs constitute a symmetry-adapted basis for the Fock matrix. The MO eigenvector coefficients in
 this basis provide a direct interpretation of the MOs in terms of Frontier Orbital Theory.

 The SFOs are combined with auxiliary Core Functions (CFs) to ensure orthogonalization on the (frozen)
 Core Orbitals (COs). The Core-orthogonalized SFOs (CSFOs) constitute the true Fock basis.

 The FOs, and hence also the (C)SFOs are combinations of the elementary basis functions (BAS). The basis
 functions that participate in the description of the SFOs depend on the irrep. The indices of the
 involved functions are printed below for each irrep.
 (The complete list of primitive basis functions is printed in another section)

 Total nr. of (C)SFOs (summation over all irreps) :    40

 NOTE: a (C)SFO that is defined as a combination of more than one FO is usually NOT normalized.



                                       === A ===
 Nr. of SFOs :   40
 Cartesian basis functions that participate in this irrep (total number =    44) :
      1    20     2     3     4     5     8    11     6     9
     12     7    10    13    14    15    16    17    18    19
     21    22    23    24    27    30    25    28    31    26
     29    32    33    34    35    36    37    38    39    40
     41    42    43    44

    SFO  (index         Fragment          Generating    Expansion in Fragment Orbitals
  indx  incl.CFs)   Occup   Orb.Energy   FragmentType  Coeff.   Orbital     on Fragment
 --------------------------------------------------------------------------------------
     1       3      2.000      -0.883 au  O             1.00      1 S               1
                        (     -24.022 eV)
     2       4       --         0.906 au  O             1.00      2 S               1
                        (      24.657 eV)
     3       5       --        29.646 au  O             1.00      3 S               1
                        (     806.705 eV)
     4       6      1.333      -0.334 au  O             1.00      1 P:x             1
                        (      -9.089 eV)
     5       7       --         0.352 au  O             1.00      2 P:x             1
                        (       9.586 eV)
     6       8       --         3.835 au  O             1.00      3 P:x             1
                        (     104.369 eV)
     7       9      1.333      -0.334 au  O             1.00      1 P:y             1
                        (      -9.089 eV)
     8      10       --         0.352 au  O             1.00      2 P:y             1
                        (       9.586 eV)
     9      11       --         3.835 au  O             1.00      3 P:y             1
                        (     104.369 eV)
    10      12      1.333      -0.334 au  O             1.00      1 P:z             1
                        (      -9.089 eV)
    11      13       --         0.352 au  O             1.00      2 P:z             1
                        (       9.586 eV)
    12      14       --         3.835 au  O             1.00      3 P:z             1
                        (     104.369 eV)
    13      15       --         1.066 au  O             1.00      1 D:z2            1
                        (      29.006 eV)
    14      16       --         1.066 au  O             1.00      1 D:x2-y2         1
                        (      29.006 eV)
    15      17       --         1.066 au  O             1.00      1 D:xy            1
                        (      29.006 eV)
    16      18       --         1.066 au  O             1.00      1 D:xz            1
                        (      29.006 eV)
    17      19       --         1.066 au  O             1.00      1 D:yz            1
                        (      29.006 eV)
    18      20      2.000      -0.883 au  O             1.00      1 S               2
                        (     -24.022 eV)
    19      21       --         0.906 au  O             1.00      2 S               2
                        (      24.657 eV)
    20      22       --        29.646 au  O             1.00      3 S               2
                        (     806.705 eV)
    21      23      1.333      -0.334 au  O             1.00      1 P:x             2
                        (      -9.089 eV)
    22      24       --         0.352 au  O             1.00      2 P:x             2
                        (       9.586 eV)
    23      25       --         3.835 au  O             1.00      3 P:x             2
                        (     104.369 eV)
    24      26      1.333      -0.334 au  O             1.00      1 P:y             2
                        (      -9.089 eV)
    25      27       --         0.352 au  O             1.00      2 P:y             2
                        (       9.586 eV)
    26      28       --         3.835 au  O             1.00      3 P:y             2
                        (     104.369 eV)
    27      29      1.333      -0.334 au  O             1.00      1 P:z             2
                        (      -9.089 eV)
    28      30       --         0.352 au  O             1.00      2 P:z             2
                        (       9.586 eV)
    29      31       --         3.835 au  O             1.00      3 P:z             2
                        (     104.369 eV)
    30      32       --         1.066 au  O             1.00      1 D:z2            2
                        (      29.006 eV)
    31      33       --         1.066 au  O             1.00      1 D:x2-y2         2
                        (      29.006 eV)
    32      34       --         1.066 au  O             1.00      1 D:xy            2
                        (      29.006 eV)
    33      35       --         1.066 au  O             1.00      1 D:xz            2
                        (      29.006 eV)
    34      36       --         1.066 au  O             1.00      1 D:yz            2
                        (      29.006 eV)
    35      37      1.000      -0.239 au  H             1.00      1 S               3
                        (      -6.493 eV)
    36      38       --         0.091 au  H             1.00      2 S               3
                        (       2.471 eV)
    37      39       --         1.522 au  H             1.00      3 S               3
                        (      41.412 eV)
    38      40       --         0.405 au  H             1.00      1 P:x             3
                        (      11.031 eV)
    39      41       --         0.405 au  H             1.00      1 P:y             3
                        (      11.031 eV)
    40      42       --         0.405 au  H             1.00      1 P:z             3
                        (      11.031 eV)



 ================================
 (Slater-type)  F U N C T I O N S  ***  (Basis and Fit)  ***
 ================================
  

 Atom Type    1  (O)
 ==============

 Valence Basis Sets:   8
 -----------------------
   1 S    7.360000
   2 S    1.720000
   2 S    2.880000
   2 S    7.580000
   2 P    1.120000
   2 P    2.080000
   2 P    4.080000
   3 D    2.000000

 Frozen Core Shells
 ------------------
    S:  1

 Atom Type    2  (H)
 ==============

 Valence Basis Sets:   4
 -----------------------
   1 S    0.690000
   1 S    0.920000
   1 S    1.580000
   2 P    1.250000


 BAS: List of all Elementary Cartesian Basis Functions
 =====================================================

 The numbering in the list below (to the right of the function characteristics) is referred
 to in print-outs of MO eigenvectors and Mulliken populations in the BAS representation
 (as contrasted to the SFO representation).

 Notes:
 1. The functions are characterized by a polynomial prefactor (powers of x,y,z and r) and
    an exponential decay factor alpha.
 2. Since the basis sets are specific for an atom TYPE, the individual functions occur on
    all atoms of that type.
 3. The word 'Core' in the left margin signals that it is a Core Function (CF) : not a
    degree of freedom in the valence set, but only used to ensure orthogonalization of
    the other valence basis functions on the frozen Core Orbitals.


 (power of) X  Y  Z  R     Alpha  on Atom
            ==========     =====     ==========

 O                                    1    2
                                  ---------------------------------------------------------------------------
    Core    0  0  0  0     7.360      1   20
            0  0  0  1     1.720      2   21
            0  0  0  1     2.880      3   22
            0  0  0  1     7.580      4   23
            1  0  0  0     1.120      5   24
            0  1  0  0     1.120      6   25
            0  0  1  0     1.120      7   26
            1  0  0  0     2.080      8   27
            0  1  0  0     2.080      9   28
            0  0  1  0     2.080     10   29
            1  0  0  0     4.080     11   30
            0  1  0  0     4.080     12   31
            0  0  1  0     4.080     13   32
            2  0  0  0     2.000     14   33
            1  1  0  0     2.000     15   34
            1  0  1  0     2.000     16   35
            0  2  0  0     2.000     17   36
            0  1  1  0     2.000     18   37
            0  0  2  0     2.000     19   38

 H                                    3
                                  ---------------------------------------------------------------------------
            0  0  0  0     0.690     39
            0  0  0  0     0.920     40
            0  0  0  0     1.580     41
            1  0  0  0     1.250     42
            0  1  0  0     1.250     43
            0  0  1  0     1.250     44

 Total number of charge fitting functions (nprimf)       214
 Total number of Cartesian basis functions (naos)         44
 Total number of Cartesian core functions  (ncos)          2



 Coordinates (Cartesian)
 =======================

     Atom                    bohr                                 angstrom                 Geometric Variables
                   X           Y           Z              X           Y           Z       (0:frozen, *:LT par.)
 --------------------------------------------------------------------------------------------------------------
     1 O      -0.940632   -0.096838   -0.012314      -0.497761   -0.051245   -0.006516      1       2       3
     2 H       0.873505   -0.096838   -0.012314       0.462239   -0.051245   -0.006516      4       5       6
     3 O      -1.773293    2.254523   -0.012314      -0.938386    1.193042   -0.006516      7       8       9
 --------------------------------------------------------------------------------------------------------------
1
 ***************************************************************************************************



                                              ***********************
                                              *  T E C H N I C A L  *
                                              ***********************
  



 =============================================================
 P A R A L L E L I Z A T I O N  and  V E C T O R I Z A T I O N
 =============================================================
  
 Nr of parallel processes:                                8
 Maximum vector length in NumInt loops:                 128

 IO buffersize (Mb):                                     64.000000



 ===============================
 G E O M E T R Y   U P D A T E S
 ===============================
  
[...]
 <Jun13-2018> <15:46:12>  >>>> CYCLE
 <Jun13-2018> <15:46:12>              |Error|         MaxErr       Wt(A-DIIS)
 <Jun13-2018> <15:46:12>      1      0.00000000      0.00000000
 <Jun13-2018> <15:46:12>      2      0.03153787      0.03011049
 <Jun13-2018> <15:46:12>      3      0.00861799      0.00834303    100.0
 <Jun13-2018> <15:46:12>      4      0.00173235      0.00171862      0.7
 <Jun13-2018> <15:46:12>      5      0.00004367      0.00003977      0.0
 <Jun13-2018> <15:46:12>      6      0.00000238      0.00000216      0.0
 <Jun13-2018> <15:46:12>      7      0.00000001      0.00000001      0.0
 <Jun13-2018> <15:46:12>  SCF converged
 <Jun13-2018> <15:46:12>      8      0.00000000      0.00000000      0.0
 <Jun13-2018> <15:46:12>  >>>> POPAN
 <Jun13-2018> <15:46:12>  >>>> DEBYE
 <Jun13-2018> <15:46:12>  NORMAL TERMINATION
 <Jun13-2018> <15:46:12>  END
 <Jun13-2018> <15:46:13>  DIRAC 2017  RunTime: Jun13-2018 15:46:13  Nodes: 1  Procs: 1
 <Jun13-2018> <15:46:13>  NORMAL TERMINATION
 <Jun13-2018> <15:46:13>  END
 <Jun13-2018> <15:46:14>  ADF 2017  RunTime: Jun13-2018 15:46:14  Nodes: 1  Procs: 1
 <Jun13-2018> <15:46:14>  Oxygen (TZP, 1s frozen)
 <Jun13-2018> <15:46:14>  RunType   : CREATE
 <Jun13-2018> <15:46:14>  Net Charge: 0 (Nuclei minus Electrons)
 <Jun13-2018> <15:46:14>  Symmetry  : ATOM
  Coordinates
    Atom         X           Y           Z   (Angstrom)
    1.O         0.000000    0.000000    0.000000
 <Jun13-2018> <15:46:14>  >>>> CORORT
 <Jun13-2018> <15:46:14>  >>>> CLSMAT
 <Jun13-2018> <15:46:14>  >>>> ORTHON
 <Jun13-2018> <15:46:14>  >>>> GENPT
 <Jun13-2018> <15:46:14>  Block Length=  68
 <Jun13-2018> <15:46:14>  >>>> PTBAS
 <Jun13-2018> <15:46:14>  >>>> CYCLE
 <Jun13-2018> <15:46:14>              |Error|         MaxErr       Wt(A-DIIS)
 <Jun13-2018> <15:46:14>      1      0.00000000      0.00000000
 <Jun13-2018> <15:46:14>      2      4.56299337      2.52897111
 <Jun13-2018> <15:46:14>      3      2.72315525      1.79866705    100.0
 <Jun13-2018> <15:46:14>      4      0.28902714      0.13064862    100.0
 <Jun13-2018> <15:46:15>      5      0.41661509      0.23264367    100.0
 <Jun13-2018> <15:46:15>      6      0.01372327      0.00671904      5.8
 <Jun13-2018> <15:46:15>      7      0.00110365      0.00063404      0.0
 <Jun13-2018> <15:46:15>      8      0.00003592      0.00002026      0.0
 <Jun13-2018> <15:46:15>      9      0.00000033      0.00000018      0.0
 <Jun13-2018> <15:46:15>     10      0.00000000      0.00000000      0.0
 <Jun13-2018> <15:46:15>  SCF converged
 <Jun13-2018> <15:46:15>     11      0.00000000      0.00000000      0.0
 <Jun13-2018> <15:46:15>  >>>> POPAN
 <Jun13-2018> <15:46:15>  >>>> DEBYE
 <Jun13-2018> <15:46:15>  NORMAL TERMINATION
 <Jun13-2018> <15:46:15>  END
 <Jun13-2018> <15:46:17>  ADF 2017  RunTime: Jun13-2018 15:46:17  Nodes: 1  Procs: 8
 <Jun13-2018> <15:46:17>  *** (NO TITLE) ***
 <Jun13-2018> <15:46:17>  RunType   : GEOMETRY OPTIMIZATION
 <Jun13-2018> <15:46:17>  Net Charge: -1 (Nuclei minus Electrons)
 <Jun13-2018> <15:46:17>  Symmetry  : NOSYM
 <Jun13-2018> <15:46:17>  >>>> FRAGM
  Coordinates in Geometry Cycle 1
    Atom         X           Y           Z   (Angstrom)
    1.O        -0.497761   -0.051245   -0.006516
    2.H         0.462239   -0.051245   -0.006516
    3.O        -0.938386    1.193042   -0.006516
 <Jun13-2018> <15:46:17>  >>>> CORORT
 <Jun13-2018> <15:46:17>  >>>> CLSMAT
 <Jun13-2018> <15:46:17>  >>>> ORTHON
 <Jun13-2018> <15:46:17>  >>>> GENPT
 <Jun13-2018> <15:46:17>  Block Length= 128
 <Jun13-2018> <15:46:17>  >>>> PTBAS
 <Jun13-2018> <15:46:17>  combining surface points...
 <Jun13-2018> <15:46:17>  combining surface points...
 <Jun13-2018> <15:46:17>  >>>> CYCLE
 <Jun13-2018> <15:46:18>              |Error|         MaxErr       Wt(A-DIIS)
 <Jun13-2018> <15:46:18>      1      0.98975579      0.24726327
 <Jun13-2018> <15:46:18>      2      0.89810521      0.32213431    100.0
 <Jun13-2018> <15:46:18>      3      0.72784833      0.26018613    100.0
 <Jun13-2018> <15:46:18>      4      0.22198701      0.08074211     80.5
 <Jun13-2018> <15:46:18>      5      0.28837836      0.10603238    100.0
 <Jun13-2018> <15:46:18>      6      0.06964132      0.02144090     20.6
 <Jun13-2018> <15:46:18>      7      0.02744703      0.00883811      7.9
 <Jun13-2018> <15:46:18>      8      0.00187378      0.00062167      0.0
 <Jun13-2018> <15:46:19>      9      0.00001867      0.00000606      0.0
 <Jun13-2018> <15:46:19>     10      0.00000244      0.00000066      0.0
 <Jun13-2018> <15:46:19>  SCF converged
 <Jun13-2018> <15:46:19>     11      0.00000037      0.00000012      0.0
 <Jun13-2018> <15:46:19>  >>>> TOTEN
 <Jun13-2018> <15:46:19>  >>>> POPAN
 <Jun13-2018> <15:46:19>  >>>> DEBYE
 <Jun13-2018> <15:46:19>  >>>> ENGRAD
 <Jun13-2018> <15:46:19>  current energy                               -0.62794630 Hartree
 <Jun13-2018> <15:46:19>  energy change                      -0.62794630     0.00100000    F
 <Jun13-2018> <15:46:19>  constrained gradient max            0.25960277     0.00100000    F
 <Jun13-2018> <15:46:19>  constrained gradient rms            0.12566207     0.00066667    F
 <Jun13-2018> <15:46:19>  gradient max                        0.25960277
 <Jun13-2018> <15:46:19>  gradient rms                        0.12566207
 <Jun13-2018> <15:46:19>  cart. step max                      0.05794580     0.01000000    F
 <Jun13-2018> <15:46:19>  cart. step rms                      0.02818909     0.00666667    F
  Coordinates in Geometry Cycle 2
    Atom         X           Y           Z   (Angstrom)
    1.O        -0.493369   -0.101806   -0.006516
    2.H         0.484063   -0.058629   -0.006516
    3.O        -0.964603    1.250988   -0.006516
 <Jun13-2018> <15:46:19>  >>>> CORORT
 <Jun13-2018> <15:46:19>  >>>> CLSMAT
 <Jun13-2018> <15:46:19>  >>>> ORTHON
 <Jun13-2018> <15:46:19>  >>>> GENPT
 <Jun13-2018> <15:46:19>  Block Length= 128
 <Jun13-2018> <15:46:19>  >>>> PTBAS
 <Jun13-2018> <15:46:19>  combining surface points...
 <Jun13-2018> <15:46:19>  combining surface points...
 <Jun13-2018> <15:46:19>  combining surface points...
 <Jun13-2018> <15:46:19>  >>>> CYCLE
 <Jun13-2018> <15:46:19>              |Error|         MaxErr       Wt(A-DIIS)
 <Jun13-2018> <15:46:19>      1      0.20081063      0.04313620
 <Jun13-2018> <15:46:19>      2      0.28998344      0.09496564    100.0
 <Jun13-2018> <15:46:19>      3      0.61586638      0.22908469    100.0
 <Jun13-2018> <15:46:20>      4      0.11680096      0.03453880     33.9
 <Jun13-2018> <15:46:20>      5      0.12836074      0.04342514     33.9
 <Jun13-2018> <15:46:20>      6      0.01444394      0.00474934      3.8
 <Jun13-2018> <15:46:20>      7      0.00184619      0.00044892      0.0
 <Jun13-2018> <15:46:20>      8      0.00019367      0.00004983      0.0
 <Jun13-2018> <15:46:20>      9      0.00002796      0.00000763      0.0
 <Jun13-2018> <15:46:20>     10      0.00000376      0.00000121      0.0
 <Jun13-2018> <15:46:20>     11      0.00000052      0.00000014      0.0
 <Jun13-2018> <15:46:20>  SCF converged
 <Jun13-2018> <15:46:20>     12      0.00000002      0.00000001      0.0
 <Jun13-2018> <15:46:20>  >>>> TOTEN
 <Jun13-2018> <15:46:21>  >>>> POPAN
 <Jun13-2018> <15:46:21>  >>>> DEBYE
 <Jun13-2018> <15:46:21>  >>>> ENGRAD
 <Jun13-2018> <15:46:21>  current energy                               -0.64748015 Hartree
 <Jun13-2018> <15:46:21>  energy change                      -0.01953386     0.00100000    F
 <Jun13-2018> <15:46:21>  constrained gradient max            0.08957274     0.00100000    F
 <Jun13-2018> <15:46:21>  constrained gradient rms            0.04174504     0.00066667    F
 <Jun13-2018> <15:46:21>  gradient max                        0.08957274
 <Jun13-2018> <15:46:21>  gradient rms                        0.04174504
 <Jun13-2018> <15:46:21>  cart. step max                      0.03385698     0.01000000    F
 <Jun13-2018> <15:46:21>  cart. step rms                      0.01486884     0.00666667    F
  Coordinates in Geometry Cycle 3
    Atom         X           Y           Z   (Angstrom)
    1.O        -0.496274   -0.135663   -0.006516
    2.H         0.480679   -0.051968   -0.006516
    3.O        -0.958314    1.278184   -0.006516
 <Jun13-2018> <15:46:21>  >>>> CORORT
 <Jun13-2018> <15:46:21>  >>>> CLSMAT
 <Jun13-2018> <15:46:21>  >>>> ORTHON
 <Jun13-2018> <15:46:21>  >>>> GENPT
 <Jun13-2018> <15:46:21>  Block Length= 128
 <Jun13-2018> <15:46:21>  >>>> PTBAS
 <Jun13-2018> <15:46:21>  combining surface points...
 <Jun13-2018> <15:46:21>  combining surface points...
 <Jun13-2018> <15:46:21>  >>>> CYCLE
 <Jun13-2018> <15:46:21>              |Error|         MaxErr       Wt(A-DIIS)
 <Jun13-2018> <15:46:21>      1      0.13540572      0.03831710
 <Jun13-2018> <15:46:21>      2      0.24192342      0.07930706    100.0
 <Jun13-2018> <15:46:21>      3      0.36994846      0.13995081    100.0
 <Jun13-2018> <15:46:21>      4      0.20012353      0.07174706     71.5
 <Jun13-2018> <15:46:21>      5      0.15635840      0.05342894     53.0
 <Jun13-2018> <15:46:21>      6      0.04222016      0.01266730     11.8
 <Jun13-2018> <15:46:22>      7      0.00910088      0.00308765      2.1
 <Jun13-2018> <15:46:22>      8      0.00031348      0.00009756      0.0
 <Jun13-2018> <15:46:22>      9      0.00003651      0.00001151      0.0
 <Jun13-2018> <15:46:22>     10      0.00000287      0.00000095      0.0
 <Jun13-2018> <15:46:22>  SCF converged
 <Jun13-2018> <15:46:22>     11      0.00000046      0.00000014      0.0
 <Jun13-2018> <15:46:22>  >>>> TOTEN
 <Jun13-2018> <15:46:22>  >>>> POPAN
 <Jun13-2018> <15:46:22>  >>>> DEBYE
 <Jun13-2018> <15:46:22>  >>>> ENGRAD
 <Jun13-2018> <15:46:22>  current energy                               -0.65091643 Hartree
 <Jun13-2018> <15:46:22>  energy change                      -0.00343628     0.00100000    F
 <Jun13-2018> <15:46:22>  constrained gradient max            0.03213172     0.00100000    F
 <Jun13-2018> <15:46:22>  constrained gradient rms            0.01558580     0.00066667    F
 <Jun13-2018> <15:46:22>  gradient max                        0.03213172
 <Jun13-2018> <15:46:22>  gradient rms                        0.01558580
 <Jun13-2018> <15:46:22>  cart. step max                      0.06811838     0.01000000    F
 <Jun13-2018> <15:46:22>  cart. step rms                      0.03975704     0.00666667    F
  Coordinates in Geometry Cycle 4
    Atom         X           Y           Z   (Angstrom)
    1.O        -0.527991   -0.142313   -0.006516
    2.H         0.444278   -0.108594   -0.006516
    3.O        -0.890196    1.341460   -0.006516
 <Jun13-2018> <15:46:22>  >>>> CORORT
 <Jun13-2018> <15:46:22>  >>>> CLSMAT
 <Jun13-2018> <15:46:22>  >>>> ORTHON
 <Jun13-2018> <15:46:22>  >>>> GENPT
 <Jun13-2018> <15:46:22>  Block Length= 128
 <Jun13-2018> <15:46:22>  >>>> PTBAS
 <Jun13-2018> <15:46:22>  combining surface points...
 <Jun13-2018> <15:46:22>  combining surface points...
 <Jun13-2018> <15:46:22>  >>>> CYCLE
 <Jun13-2018> <15:46:22>              |Error|         MaxErr       Wt(A-DIIS)
 <Jun13-2018> <15:46:22>      1      0.14296887      0.03848911
 <Jun13-2018> <15:46:22>      2      0.24476090      0.08509878    100.0
 <Jun13-2018> <15:46:23>      3      0.19830275      0.07331515    100.0
 <Jun13-2018> <15:46:23>      4      0.27463431      0.10895142    100.0
 <Jun13-2018> <15:46:23>      5      0.05061823      0.01588772     15.0
 <Jun13-2018> <15:46:23>      6      0.01947370      0.00670969      5.8
 <Jun13-2018> <15:46:23>      7      0.00155197      0.00037387      0.0
 <Jun13-2018> <15:46:23>      8      0.00015659      0.00004223      0.0
 <Jun13-2018> <15:46:23>      9      0.00002508      0.00000683      0.0
 <Jun13-2018> <15:46:23>     10      0.00000270      0.00000092      0.0
 <Jun13-2018> <15:46:23>  SCF converged
 <Jun13-2018> <15:46:23>     11      0.00000051      0.00000020      0.0
 <Jun13-2018> <15:46:23>  >>>> TOTEN
 <Jun13-2018> <15:46:24>  >>>> POPAN
 <Jun13-2018> <15:46:24>  >>>> DEBYE
 <Jun13-2018> <15:46:24>  >>>> ENGRAD
 <Jun13-2018> <15:46:24>  current energy                               -0.65155368 Hartree
 <Jun13-2018> <15:46:24>  energy change                      -0.00063725     0.00100000    T
 <Jun13-2018> <15:46:24>  constrained gradient max            0.00910028     0.00100000    F
 <Jun13-2018> <15:46:24>  constrained gradient rms            0.00407354     0.00066667    F
 <Jun13-2018> <15:46:24>  gradient max                        0.00910028
 <Jun13-2018> <15:46:24>  gradient rms                        0.00407354
 <Jun13-2018> <15:46:24>  cart. step max                      0.01214334     0.01000000    F
 <Jun13-2018> <15:46:24>  cart. step rms                      0.00563328     0.00666667    T
  Coordinates in Geometry Cycle 5
    Atom         X           Y           Z   (Angstrom)
    1.O        -0.526002   -0.149177   -0.006516
    2.H         0.448633   -0.096450   -0.006516
    3.O        -0.896539    1.336181   -0.006516
 <Jun13-2018> <15:46:24>  >>>> CORORT
 <Jun13-2018> <15:46:24>  >>>> CLSMAT
 <Jun13-2018> <15:46:24>  >>>> ORTHON
 <Jun13-2018> <15:46:24>  >>>> GENPT
 <Jun13-2018> <15:46:24>  Block Length= 128
 <Jun13-2018> <15:46:24>  >>>> PTBAS
 <Jun13-2018> <15:46:24>  combining surface points...
 <Jun13-2018> <15:46:24>  combining surface points...
 <Jun13-2018> <15:46:24>  >>>> CYCLE
 <Jun13-2018> <15:46:24>              |Error|         MaxErr       Wt(A-DIIS)
 <Jun13-2018> <15:46:24>      1      0.11134479      0.03393287
 <Jun13-2018> <15:46:24>      2      0.22752775      0.07851965    100.0
 <Jun13-2018> <15:46:24>      3      0.11011689      0.03435562    100.0
 <Jun13-2018> <15:46:24>      4      0.18486721      0.07589466    100.0
 <Jun13-2018> <15:46:24>      5      0.08779902      0.03740411     36.8
 <Jun13-2018> <15:46:24>      6      0.02093126      0.00849569      7.6
 <Jun13-2018> <15:46:25>      7      0.00239248      0.00083211      0.0
 <Jun13-2018> <15:46:25>      8      0.00013369      0.00004285      0.0
 <Jun13-2018> <15:46:25>      9      0.00001566      0.00000493      0.0
 <Jun13-2018> <15:46:25>     10      0.00000295      0.00000083      0.0
 <Jun13-2018> <15:46:25>  SCF converged
 <Jun13-2018> <15:46:25>     11      0.00000091      0.00000024      0.0
 <Jun13-2018> <15:46:25>  >>>> TOTEN
 <Jun13-2018> <15:46:25>  >>>> POPAN
 <Jun13-2018> <15:46:25>  >>>> DEBYE
 <Jun13-2018> <15:46:25>  >>>> ENGRAD
 <Jun13-2018> <15:46:25>  current energy                               -0.65157729 Hartree
 <Jun13-2018> <15:46:25>  energy change                      -0.00002361     0.00100000    T
 <Jun13-2018> <15:46:25>  constrained gradient max            0.00299055     0.00100000    F
 <Jun13-2018> <15:46:25>  constrained gradient rms            0.00166332     0.00066667    F
 <Jun13-2018> <15:46:25>  gradient max                        0.00299055
 <Jun13-2018> <15:46:25>  gradient rms                        0.00166332
 <Jun13-2018> <15:46:25>  cart. step max                      0.01152659     0.01000000    F
 <Jun13-2018> <15:46:25>  cart. step rms                      0.00672785     0.00666667    F
  Coordinates in Geometry Cycle 6
    Atom         X           Y           Z   (Angstrom)
    1.O        -0.520234   -0.150494   -0.006516
    2.H         0.454391   -0.085656   -0.006516
    3.O        -0.908066    1.326703   -0.006516
 <Jun13-2018> <15:46:25>  >>>> CORORT
 <Jun13-2018> <15:46:25>  >>>> CLSMAT
 <Jun13-2018> <15:46:25>  >>>> ORTHON
 <Jun13-2018> <15:46:25>  >>>> GENPT
 <Jun13-2018> <15:46:25>  Block Length= 128
 <Jun13-2018> <15:46:25>  >>>> PTBAS
 <Jun13-2018> <15:46:25>  combining surface points...
 <Jun13-2018> <15:46:25>  combining surface points...
 <Jun13-2018> <15:46:25>  >>>> CYCLE
 <Jun13-2018> <15:46:25>              |Error|         MaxErr       Wt(A-DIIS)
 <Jun13-2018> <15:46:25>      1      0.11103615      0.03273633
 <Jun13-2018> <15:46:26>      2      0.22496538      0.07561191    100.0
 <Jun13-2018> <15:46:26>      3      0.09452941      0.02868877    100.0
 <Jun13-2018> <15:46:26>      4      0.09233791      0.04254212     42.0
 <Jun13-2018> <15:46:26>      5      0.14594118      0.06114740    100.0
 <Jun13-2018> <15:46:26>      6      0.04828740      0.01576683     14.9
 <Jun13-2018> <15:46:26>      7      0.00797075      0.00262915      1.6
 <Jun13-2018> <15:46:26>      8      0.00061022      0.00017162      0.0
 <Jun13-2018> <15:46:26>      9      0.00009751      0.00003036      0.0
 <Jun13-2018> <15:46:26>     10      0.00000774      0.00000227      0.0
 <Jun13-2018> <15:46:27>     11      0.00000139      0.00000048      0.0
 <Jun13-2018> <15:46:27>  SCF converged
 <Jun13-2018> <15:46:27>     12      0.00000005      0.00000002      0.0
 <Jun13-2018> <15:46:27>  >>>> TOTEN
 <Jun13-2018> <15:46:27>  >>>> POPAN
 <Jun13-2018> <15:46:27>  >>>> DEBYE
 <Jun13-2018> <15:46:27>  >>>> ENGRAD
 <Jun13-2018> <15:46:27>  current energy                               -0.65157790 Hartree
 <Jun13-2018> <15:46:27>  energy change                      -0.00000061     0.00100000    T
 <Jun13-2018> <15:46:27>  constrained gradient max            0.00033453     0.00100000    T
 <Jun13-2018> <15:46:27>  constrained gradient rms            0.00017348     0.00066667    T
 <Jun13-2018> <15:46:27>  gradient max                        0.00033453
 <Jun13-2018> <15:46:27>  gradient rms                        0.00017348
 <Jun13-2018> <15:46:27>  cart. step max                      0.00156377     0.01000000    T
 <Jun13-2018> <15:46:27>  cart. step rms                      0.00082180     0.00666667    T
 <Jun13-2018> <15:46:27>  GEOMETRY CONVERGED
 <Jun13-2018> <15:46:27>  Calculating Energy Terms for Final Geometry
  Coordinates in Geometry Cycle 6
    Atom         X           Y           Z   (Angstrom)
    1.O        -0.520234   -0.150494   -0.006516
    2.H         0.454391   -0.085656   -0.006516
    3.O        -0.908066    1.326703   -0.006516
 <Jun13-2018> <15:46:27>  >>>> CORORT
 <Jun13-2018> <15:46:27>  >>>> CLSMAT
 <Jun13-2018> <15:46:27>  >>>> ORTHON
 <Jun13-2018> <15:46:27>  >>>> GENPT
 <Jun13-2018> <15:46:27>  Block Length= 128
 <Jun13-2018> <15:46:27>  >>>> PTBAS
 <Jun13-2018> <15:46:27>  combining surface points...
 <Jun13-2018> <15:46:27>  combining surface points...
 <Jun13-2018> <15:46:27>  >>>> CYCLE
 <Jun13-2018> <15:46:27>              |Error|         MaxErr       Wt(A-DIIS)
 <Jun13-2018> <15:46:27>      1      0.11095636      0.05299392
 <Jun13-2018> <15:46:27>      2      0.22734396      0.09422763    100.0
 <Jun13-2018> <15:46:27>      3      0.09443558      0.04895774    100.0
 <Jun13-2018> <15:46:27>      4      0.10071413      0.05504741     54.6
 <Jun13-2018> <15:46:28>      5      0.16710808      0.08169227    100.0
 <Jun13-2018> <15:46:28>      6      0.03231531      0.01153503     10.6
 <Jun13-2018> <15:46:28>      7      0.00686507      0.00250735      1.5
 <Jun13-2018> <15:46:28>      8      0.00050578      0.00014843      0.0
 <Jun13-2018> <15:46:28>      9      0.00009819      0.00003239      0.0
 <Jun13-2018> <15:46:28>     10      0.00000944      0.00000262      0.0
 <Jun13-2018> <15:46:28>     11      0.00000161      0.00000062      0.0
 <Jun13-2018> <15:46:28>  SCF converged
 <Jun13-2018> <15:46:28>     12      0.00000008      0.00000003      0.0
 <Jun13-2018> <15:46:28>  >>>> TOTEN
 <Jun13-2018> <15:46:29>  >>>> POPAN
 <Jun13-2018> <15:46:29>  >>>> DEBYE
 <Jun13-2018> <15:46:29>  >>>> AMETS
 <Jun13-2018> <15:46:29>  >>>> POPUL
 <Jun13-2018> <15:46:29>   Bond Energy          -0.65157790 a.u.
 <Jun13-2018> <15:46:29>   Bond Energy         -17.73033678 eV
 <Jun13-2018> <15:46:29>   Bond Energy        -408.87       kcal/mol
 <Jun13-2018> <15:46:29>  >>>> ENHESS
 <Jun13-2018> <15:46:29>  === NUCLEUS:     1
 <Jun13-2018> <15:46:33>  === NUCLEUS:     2
 <Jun13-2018> <15:46:37>  === NUCLEUS:     3
 <Jun13-2018> <15:46:41>  >>>> CALC_HESS_PMAT
 <Jun13-2018> <15:46:41>  >>>> CALC_HESS_WMAT
 <Jun13-2018> <15:46:41>  NORMAL TERMINATION
 <Jun13-2018> <15:46:41>  END
