
 *******************************************************************************
 *                                                                             *
 *  -------------------------------------                                      *
 *   Amsterdam Density Functional  (ADF)         2017                          *
 *  -------------------------------------                                      *
 *                                               r61155 2017-09-11             *
 *                                                                             *
 *                                                                             *
 *                            =====================                            *
 *                            |                   |                            *
 *                            |     D I R A C     |                            *
 *                            |                   |                            *
 *                            =====================                            *
 *                                                                             *
 *                                                                             *
 *   Online information and documentation:  https://www.scm.com/support/       *
 *   E-mail:  support@scm.com   info@scm.com                                   *
 *                                                                             *
 *   Scientific publications using ADF results must be properly referenced     *
 *   See the User Manuals (or the web site) for recommended citations          *
 *   The terms and conditions of the End User License Agreement apply to       *
 *   the use of ADF, https://www.scm.com/license-terms/                        *
 *                                                                             *
 ***********************  x86_64_linux_intel / openmpi  ************************
 
 Licensed to: Prof. Pere Miro / University of South Dakota, Department of Chemistry / Vermillion / SD / USA
 SCM User ID: u19501
  
 DIRAC 2017  RunTime: May30-2018 15:57:35  Nodes: 1  Procs: 1

 Temporary files are created in /tmp/30065/kid_0.VcsvJm

1
 URANIUM ATOM 4f CORE RELATIVISTIC, Point Nuc, A and c from l
 N J RN H ZN XION ANUC CLIGHT
 5000   29100.00000000197.36710137 92.00000000  0.00000000  238.050783  0.1370360E+03
  PH   PHI     EPS        DEL        DELRVR
  0.30  0.30     2500.00  0.00001000  0.00001000
 IDIRC  NC1  NDEBU NPRIN  IPUN IRCOR IWCOR
   1   300     0     0     0     0    16
   XALPHA      XLATTER      RNUC
  0.70000000  0.00000000  0.00000000 Point Charge
   XN   XL   XJ      XE          XZ      XDELL
  1.0  0.0  0.5   -2600.000       2.000     0.00000
  2.0  0.0  0.5    -425.000       2.000     0.00000
  2.0  1.0  0.5    -425.000       2.000     0.00000
  2.0  1.0  1.5    -425.000       4.000     0.00000
  3.0  0.0  0.5    -100.000       2.000     0.00000
  3.0  1.0  0.5    -100.000       2.000     0.00000
  3.0  1.0  1.5    -100.000       4.000     0.00000
  3.0  2.0  1.5     -80.000       4.000     0.00000
  3.0  2.0  2.5     -80.000       6.000     0.00000
  4.0  0.0  0.5     -22.000       2.000     0.00000
  4.0  1.0  0.5     -20.000       2.000     0.00000
  4.0  1.0  1.5     -20.000       4.000     0.00000
  4.0  2.0  1.5     -11.000       4.000     0.00000
  4.0  2.0  2.5     -11.000       6.000     0.00000
  4.0  3.0  2.5      -1.500       6.000     0.00000
  4.0  3.0  3.5      -1.500       8.000     0.00000
  5.0  0.0  0.5      -3.000       2.000     0.00000
  5.0  1.0  0.5      -2.200       2.000     0.00000
  5.0  1.0  1.5      -2.200       4.000     0.00000
  5.0  2.0  1.5      -1.000       4.000     0.00000
  5.0  2.0  2.5      -1.000       6.000     0.00000
  6.0  0.0  0.5      -0.750       2.000     0.00000
  6.0  1.0  0.5      -0.750       2.000     0.00000
  6.0  1.0  1.5      -0.500       4.000     0.00000
  5.0  3.0  2.5      -0.100       3.000     0.00000
  5.0  3.0  3.5      -0.100       0.000     0.00000
  6.0  2.0  1.5      -0.100       1.000     0.00000
  6.0  2.0  2.5      -0.100       0.000     0.00000
  7.0  0.0  0.5      -0.250       2.000     0.00000
 ICORP=  0  NPCL=  0  DEMP=0.00  PEPS=0.000000
 R(1)=  0.1000000E-08 D=  0.1005080E+01 RNUC=  0.0000000E+00
 TOO MANY NODES 6.0 5.0 3.0 2.5 -0.1261728E+00 -0.1208378E+00 -0.1155029E+00
 TOO MANY NODES 6.0 5.0 3.0 2.5 -0.1170229E+00 -0.1131853E+00 -0.1093478E+00
 TOO MANY NODES 6.0 5.0 3.0 3.5 -0.8710344E-01 -0.8352277E-01 -0.7994209E-01
 TOO MANY NODES 6.0 5.0 3.0 2.5 -0.1135243E+00 -0.1080838E+00 -0.1026434E+00
 TOO MANY NODES 6.0 5.0 3.0 3.5 -0.8366713E-01 -0.7843793E-01 -0.7320874E-01
 TOO MANY NODES 6.0 5.0 3.0 3.5 -0.7582333E-01 -0.7498301E-01 -0.7414268E-01
 DE TOO LARGE 5.0 3.0 3.5 -0.8352222E-01 -0.7888210E-01 -0.7424197E-01  0.1466962E-01
 TOO MANY NODES 6.0 5.0 3.0 2.5 -0.1061471E+00 -0.1036176E+00 -0.1010880E+00
 TOO MANY NODES 6.0 5.0 3.0 3.5 -0.7888210E-01 -0.7475642E-01 -0.7063074E-01
 converged at cycle   53  DENSITY AVERAGING    0.0503
  MAXIMUM ERROR IN R.V(R) IS   0.49809899E-05
 Q,EY,EV,EZ,ESUM,ETOT,RHO  0.920000E+02 -0.636993E+03 -0.522229E+05 -0.725498E+05 -0.177591E+05 -0.280818E+05  0.358229E-07


 DIRAC CALCULATION
1                    URANIUM ATOM 4f CORE RELATIVISTIC, Point Nuc, A and c from libtc


 EXCHANGE COEFFICIENT=  0.7000000           TAIL CORRECTION=  0.           NUCLEAR RADIUS=  0.000E+00
0                       ORBITAL    N    L    J     ELECTRONS     EIGENVALUE                DELTA OF EIGENV.

                          1S1/2  1.0  0.0  0.5     2.000       -0.4255570E+04                 0.3049741E-04
                          2S1/2  2.0  0.0  0.5     2.000       -0.7950122E+03                 0.2800079E-04
                          2P1/2  2.0  1.0  0.5     2.000       -0.7667058E+03                 0.2859174E-04
                          2P3/2  2.0  1.0  1.5     4.000       -0.6259608E+03                 0.2801575E-04
                          3S1/2  3.0  0.0  0.5     2.000       -0.2006922E+03                 0.2311534E-04
                          3P1/2  3.0  1.0  0.5     2.000       -0.1878207E+03                 0.2357693E-04
                          3P3/2  3.0  1.0  1.5     4.000       -0.1553848E+03                 0.2265893E-04
                          3D3/2  3.0  2.0  1.5     4.000       -0.1349867E+03                 0.2375477E-04
                          3D5/2  3.0  2.0  2.5     6.000       -0.1284024E+03                 0.2347626E-04
                          4S1/2  4.0  0.0  0.5     2.000       -0.5109161E+02                 0.1584544E-04
                          4P1/2  4.0  1.0  0.5     2.000       -0.4529574E+02                 0.1594271E-04
                          4P3/2  4.0  1.0  1.5     4.000       -0.3682640E+02                 0.1471822E-04
                          4D3/2  4.0  2.0  1.5     4.000       -0.2758990E+02                 0.1491229E-04
                          4D5/2  4.0  2.0  2.5     6.000       -0.2603194E+02                 0.1456610E-04
                          4F5/2  4.0  3.0  2.5     6.000       -0.1387857E+02                 0.1498740E-04
                          4F7/2  4.0  3.0  3.5     8.000       -0.1347219E+02                 0.1481585E-04
                          5S1/2  5.0  0.0  0.5     2.000       -0.1132701E+02                 0.8357219E-05
                          5P1/2  5.0  1.0  0.5     2.000       -0.9073465E+01                 0.8073865E-05
                          5P3/2  5.0  1.0  1.5     4.000       -0.7057725E+01                 0.7245237E-05
                          5D3/2  5.0  2.0  1.5     4.000       -0.3764380E+01                 0.6514200E-05
                          5D5/2  5.0  2.0  2.5     6.000       -0.3465944E+01                 0.6299168E-05
                          6S1/2  6.0  0.0  0.5     2.000       -0.1719825E+01                 0.3534413E-05
                          6P1/2  6.0  1.0  0.5     2.000       -0.1069359E+01                 0.3091253E-05
                          6P3/2  6.0  1.0  1.5     4.000       -0.7409575E+00                 0.2589566E-05
                          5F5/2  5.0  3.0  2.5     3.000       -0.1032941E+00                 0.3904174E-05
                          5F7/2  5.0  3.0  3.5     0.000       -0.7283949E-01                 0.3769863E-05
                          6D3/2  6.0  2.0  1.5     1.000       -0.7103330E-01                 0.1292171E-05
                          6D5/2  6.0  2.0  2.5     0.000       -0.5372781E-01                 0.1158602E-05
                          7S1/2  7.0  0.0  0.5     2.000       -0.1339890E+00                 0.7985880E-06


                                        NUCLEAR CHARGE=   92.000000
                            INTEGRAL OF CHARGE DENSITY=   92.000000
                           SUM OF THE ORBITAL ENERGIES= -17759.1033
                                          TOTAL ENERGY= -28081.8111
                                        KINETIC ENERGY=  34463.7935
                             NUCLEAR ATTRACTION ENERGY= -72549.8160
                             ELECTRON REPULSION ENERGY=  10481.9560
                                       EXCHANGE ENERGY=   -477.7445

 *******************************************************************************

                             D I R A C   E X I T
 NORMAL TERMINATION



 =================
 Timing Statistics
 =================
  
 Total Used :                     CPU=        0.71      System=        0.03     Elapsed=        0.75

 Calls  Section                     ( Mean, Percentage )
 ---------------------------------------------------------------------------------------------------
     2  ><      ................      0.00    0.00             0.00    0.02             0.00    0.00
     1  EXIT PROCEDURE .........      0.71  100.00             0.03   99.98             0.75  100.00


 Currently Open Files (EXIT00)
 ====================

 Unit    Access Format  Status   Type       Ident (file)
 -------------------------------------------------------
   3      SEQ    FORM   TRANSP  NORMAL      LOGFILE
                                          ( logfile )


 Buffered I/O statistics
 =======================
 Memory available:                     67108864
 Number of records fitting in memory:     16131
 Input : 100.0% of                            0  *4k bytes
 Output: 100.0% of                            0  *4k bytes
 Records from serial files evicted:           0
                    others evicted:           0
 Hash table lookups:          0 with          0 conflicts (100.00%)

Create U   file=TZP-U.4f
XC
GGA PBE
End
relativistic ZORA
Corepotentials t12.rel
End Input

 *******************************************************************************
 *                                                                             *
 *  -------------------------------------                                      *
 *   Amsterdam Density Functional  (ADF)         2017                          *
 *  -------------------------------------                                      *
 *                                               r61155 2017-09-11             *
 *                                                                             *
 *                                                                             *
 *                              =================                              *
 *                              |               |                              *
 *                              |     A D F     |                              *
 *                              |               |                              *
 *                              =================                              *
 *                                                                             *
 *                                                                             *
 *   Online information and documentation:  https://www.scm.com/support/       *
 *   E-mail:  support@scm.com   info@scm.com                                   *
 *                                                                             *
 *   Scientific publications using ADF results must be properly referenced     *
 *   See the User Manuals (or the web site) for recommended citations          *
 *   The terms and conditions of the End User License Agreement apply to       *
 *   the use of ADF, https://www.scm.com/license-terms/                        *
 *                                                                             *
 ***********************  x86_64_linux_intel / openmpi  ************************
 
 Licensed to: Prof. Pere Miro / University of South Dakota, Department of Chemistry / Vermillion / SD / USA
 SCM User ID: u19501
  
 ADF 2017  RunTime: May30-2018 15:57:36  Nodes: 1  Procs: 1

 Temporary files are created in /tmp/30065/kid_0.3k4CCb

 Uranium (TZP, 4f frozen)



 ===========================
 A T T A C H E D   F I L E S
 ===========================
  
 CREATE - Data File:    TZP-U.4f
                        Uranium (TZP, 4f frozen)
 Core Potentials:
         file : t12.rel



 ===============================
 M O D E L   P A R A M E T E R S
 ===============================
  
 DENSITY FUNCTIONAL POTENTIAL (scf)
    LDA:                               PW92                                    == Not Default ==
    Gradient Corrections:              PBEc PBEx                               == Not Default ==

 SPIN  (restricted / unrestr.)
    Molecule:                          Restricted                               

 OTHER ASPECTS
    Relativistic Corrections:          scalar (ZORA,MAPA)                      == Not Default ==

    Nuclear Charge Density Model:      Point Charge Nuclei                      
    Core Treatment:                    Frozen Orbital(s)                        

    Hyperfine or Zeeman Interaction:   ---                                      



 =====================================
 S Y M M E T R Y ,   E L E C T R O N S
 =====================================
  
 Symmetry: ATOM

 Irreducible Representations, including subspecies
 -------------------------------------------------
 S
 P:x  P:y  P:z
 D:z2  D:x2-y2  D:xy  D:xz  D:yz
 F:z3  F:z  F:xyz  F:z2x  F:z2y  F:x  F:y


 Configuration of Valence Electrons
 ==================================

          Occupation Numbers
          -------------------------------------------------
 S        3*2
 P        2*6
 D        10 1
 F        3
          -------------------------------------------------

 Total:   32

 Net Charge: 0 (Nuclei minus Electrons)

 Preset values for MO occupations will be applied through SCF cycle no. 1000000
 Thereafter, the program will assign electrons to MOs that are spatially
 similar to the occupied MOs in a "reference" cycle ("KeepOrbitals").
 The reference cycle is always the PREVIOUS cycle: it will evolve with
 the SCF procedure.



 ================================
 (Slater-type)  F U N C T I O N S  ***  (Basis and Fit)  ***
 ================================
  

 Atom Type    1  (U)
 ==============

 Valence Basis Sets:  32
 -----------------------
   1 S   70.000000
   2 S   44.250000
   3 S   26.350000
   4 S   14.750000
   2 P   44.050000
   3 P   24.800000
   4 P   13.900000
   3 D   27.700000
   4 D   13.600000
   4 F   15.150000
   5 S   10.450000
   5 S    7.250000
   1 S  245.000000
   6 S    5.000000
   6 S    3.300000
   7 S    2.350000
   7 S    1.550000
   7 S    1.020000
   5 P    8.650000
   5 P    6.000000
   6 P    4.450000
   6 P    3.000000
   6 P    2.100000
   6 D    2.900000
   5 D    7.250000
   5 D    4.650000
   6 D    1.600000
   6 D    0.880000
   5 F    5.800000
   5 F    3.000000
   5 F    1.390000
   7 P    1.550000

 Frozen Core Shells
 ------------------
    S:  4
    P:  3
    D:  2
    F:  1


 BAS: List of all Elementary Cartesian Basis Functions
 =====================================================

 The numbering in the list below (to the right of the function characteristics) is referred
 to in print-outs of MO eigenvectors and Mulliken populations in the BAS representation
 (as contrasted to the SFO representation).

 Notes:
 1. The functions are characterized by a polynomial prefactor (powers of x,y,z and r) and
    an exponential decay factor alpha.
 2. Since the basis sets are specific for an atom TYPE, the individual functions occur on
    all atoms of that type.
 3. The word 'Core' in the left margin signals that it is a Core Function (CF) : not a
    degree of freedom in the valence set, but only used to ensure orthogonalization of
    the other valence basis functions on the frozen Core Orbitals.


 (power of) X  Y  Z  R     Alpha  on Atom
            ==========     =====     ==========

 U                                    1
                                  ---------------------------------------------------------------------------
    Core    0  0  0  0    70.000      1
    Core    0  0  0  1    44.250      2
    Core    0  0  0  2    26.350      3
    Core    0  0  0  3    14.750      4
    Core    1  0  0  0    44.050      5
    Core    0  1  0  0    44.050      6
    Core    0  0  1  0    44.050      7
    Core    1  0  0  1    24.800      8
    Core    0  1  0  1    24.800      9
    Core    0  0  1  1    24.800     10
    Core    1  0  0  2    13.900     11
    Core    0  1  0  2    13.900     12
    Core    0  0  1  2    13.900     13
    Core    2  0  0  0    27.700     14
    Core    1  1  0  0    27.700     15
    Core    1  0  1  0    27.700     16
    Core    0  2  0  0    27.700     17
    Core    0  1  1  0    27.700     18
    Core    0  0  2  0    27.700     19
    Core    2  0  0  1    13.600     20
    Core    1  1  0  1    13.600     21
    Core    1  0  1  1    13.600     22
    Core    0  2  0  1    13.600     23
    Core    0  1  1  1    13.600     24
    Core    0  0  2  1    13.600     25
    Core    3  0  0  0    15.150     26
    Core    2  1  0  0    15.150     27
    Core    2  0  1  0    15.150     28
    Core    1  2  0  0    15.150     29
    Core    1  1  1  0    15.150     30
    Core    1  0  2  0    15.150     31
    Core    0  3  0  0    15.150     32
    Core    0  2  1  0    15.150     33
    Core    0  1  2  0    15.150     34
    Core    0  0  3  0    15.150     35
            0  0  0  4    10.450     36
            0  0  0  4     7.250     37
            0  0  0  0   245.000     38
            0  0  0  5     5.000     39
            0  0  0  5     3.300     40
            0  0  0  6     2.350     41
            0  0  0  6     1.550     42
            0  0  0  6     1.020     43
            1  0  0  3     8.650     44
            0  1  0  3     8.650     45
            0  0  1  3     8.650     46
            1  0  0  3     6.000     47
            0  1  0  3     6.000     48
            0  0  1  3     6.000     49
            1  0  0  4     4.450     50
            0  1  0  4     4.450     51
            0  0  1  4     4.450     52
            1  0  0  4     3.000     53
            0  1  0  4     3.000     54
            0  0  1  4     3.000     55
            1  0  0  4     2.100     56
            0  1  0  4     2.100     57
            0  0  1  4     2.100     58
            2  0  0  3     2.900     59
            1  1  0  3     2.900     60
            1  0  1  3     2.900     61
            0  2  0  3     2.900     62
            0  1  1  3     2.900     63
            0  0  2  3     2.900     64
            2  0  0  2     7.250     65
            1  1  0  2     7.250     66
            1  0  1  2     7.250     67
            0  2  0  2     7.250     68
            0  1  1  2     7.250     69
            0  0  2  2     7.250     70
            2  0  0  2     4.650     71
            1  1  0  2     4.650     72
            1  0  1  2     4.650     73
            0  2  0  2     4.650     74
            0  1  1  2     4.650     75
            0  0  2  2     4.650     76
            2  0  0  3     1.600     77
            1  1  0  3     1.600     78
            1  0  1  3     1.600     79
            0  2  0  3     1.600     80
            0  1  1  3     1.600     81
            0  0  2  3     1.600     82
            2  0  0  3     0.880     83
            1  1  0  3     0.880     84
            1  0  1  3     0.880     85
            0  2  0  3     0.880     86
            0  1  1  3     0.880     87
            0  0  2  3     0.880     88
            3  0  0  1     5.800     89
            2  1  0  1     5.800     90
            2  0  1  1     5.800     91
            1  2  0  1     5.800     92
            1  1  1  1     5.800     93
            1  0  2  1     5.800     94
            0  3  0  1     5.800     95
            0  2  1  1     5.800     96
            0  1  2  1     5.800     97
            0  0  3  1     5.800     98
            3  0  0  1     3.000     99
            2  1  0  1     3.000    100
            2  0  1  1     3.000    101
            1  2  0  1     3.000    102
            1  1  1  1     3.000    103
            1  0  2  1     3.000    104
            0  3  0  1     3.000    105
            0  2  1  1     3.000    106
            0  1  2  1     3.000    107
            0  0  3  1     3.000    108
            3  0  0  1     1.390    109
            2  1  0  1     1.390    110
            2  0  1  1     1.390    111
            1  2  0  1     1.390    112
            1  1  1  1     1.390    113
            1  0  2  1     1.390    114
            0  3  0  1     1.390    115
            0  2  1  1     1.390    116
            0  1  2  1     1.390    117
            0  0  3  1     1.390    118
            1  0  0  5     1.550    119
            0  1  0  5     1.550    120
            0  0  1  5     1.550    121

 Total number of charge fitting functions (nprimf)       389
 Total number of Cartesian basis functions (naos)        121
 Total number of Cartesian core functions  (ncos)         35



 BAS: List of all Elementary Cartesian Basis Functions
 =====================================================

 The numbering in the list below (to the right of the function characteristics) is referred
 to in print-outs of MO eigenvectors and Mulliken populations in the BAS representation
 (as contrasted to the SFO representation).

 Notes:
 1. The functions are characterized by a polynomial prefactor (powers of x,y,z and r) and
    an exponential decay factor alpha.
 2. Since the basis sets are specific for an atom TYPE, the individual functions occur on
    all atoms of that type.
 3. The word 'Core' in the left margin signals that it is a Core Function (CF) : not a
    degree of freedom in the valence set, but only used to ensure orthogonalization of
    the other valence basis functions on the frozen Core Orbitals.


 (power of) X  Y  Z  R     Alpha  on Atom
            ==========     =====     ==========

 U                                    1
                                  ---------------------------------------------------------------------------
    Core    0  0  0  0    70.000      1
    Core    0  0  0  1    44.250      2
    Core    0  0  0  2    26.350      3
    Core    0  0  0  3    14.750      4
    Core    1  0  0  0    44.050      5
    Core    0  1  0  0    44.050      6
    Core    0  0  1  0    44.050      7
    Core    1  0  0  1    24.800      8
    Core    0  1  0  1    24.800      9
    Core    0  0  1  1    24.800     10
    Core    1  0  0  2    13.900     11
    Core    0  1  0  2    13.900     12
    Core    0  0  1  2    13.900     13
    Core    2  0  0  0    27.700     14
    Core    1  1  0  0    27.700     15
    Core    1  0  1  0    27.700     16
    Core    0  2  0  0    27.700     17
    Core    0  1  1  0    27.700     18
    Core    0  0  2  0    27.700     19
    Core    2  0  0  1    13.600     20
    Core    1  1  0  1    13.600     21
    Core    1  0  1  1    13.600     22
    Core    0  2  0  1    13.600     23
    Core    0  1  1  1    13.600     24
    Core    0  0  2  1    13.600     25
    Core    3  0  0  0    15.150     26
    Core    2  1  0  0    15.150     27
    Core    2  0  1  0    15.150     28
    Core    1  2  0  0    15.150     29
    Core    1  1  1  0    15.150     30
    Core    1  0  2  0    15.150     31
    Core    0  3  0  0    15.150     32
    Core    0  2  1  0    15.150     33
    Core    0  1  2  0    15.150     34
    Core    0  0  3  0    15.150     35
            0  0  0  4    10.450     36
            0  0  0  4     7.250     37
            0  0  0  0   245.000     38
            0  0  0  5     5.000     39
            0  0  0  5     3.300     40
            0  0  0  6     2.350     41
            0  0  0  6     1.550     42
            0  0  0  6     1.020     43
            1  0  0  3     8.650     44
            0  1  0  3     8.650     45
            0  0  1  3     8.650     46
            1  0  0  3     6.000     47
            0  1  0  3     6.000     48
            0  0  1  3     6.000     49
            1  0  0  4     4.450     50
            0  1  0  4     4.450     51
            0  0  1  4     4.450     52
            1  0  0  4     3.000     53
            0  1  0  4     3.000     54
            0  0  1  4     3.000     55
            1  0  0  4     2.100     56
            0  1  0  4     2.100     57
            0  0  1  4     2.100     58
            2  0  0  3     2.900     59
            1  1  0  3     2.900     60
            1  0  1  3     2.900     61
            0  2  0  3     2.900     62
            0  1  1  3     2.900     63
            0  0  2  3     2.900     64
            2  0  0  2     7.250     65
            1  1  0  2     7.250     66
            1  0  1  2     7.250     67
            0  2  0  2     7.250     68
            0  1  1  2     7.250     69
            0  0  2  2     7.250     70
            2  0  0  2     4.650     71
            1  1  0  2     4.650     72
            1  0  1  2     4.650     73
            0  2  0  2     4.650     74
            0  1  1  2     4.650     75
            0  0  2  2     4.650     76
            2  0  0  3     1.600     77
            1  1  0  3     1.600     78
            1  0  1  3     1.600     79
            0  2  0  3     1.600     80
            0  1  1  3     1.600     81
            0  0  2  3     1.600     82
            2  0  0  3     0.880     83
            1  1  0  3     0.880     84
            1  0  1  3     0.880     85
            0  2  0  3     0.880     86
            0  1  1  3     0.880     87
            0  0  2  3     0.880     88
            3  0  0  1     5.800     89
            2  1  0  1     5.800     90
            2  0  1  1     5.800     91
            1  2  0  1     5.800     92
            1  1  1  1     5.800     93
            1  0  2  1     5.800     94
            0  3  0  1     5.800     95
            0  2  1  1     5.800     96
            0  1  2  1     5.800     97
            0  0  3  1     5.800     98
            3  0  0  1     3.000     99
            2  1  0  1     3.000    100
            2  0  1  1     3.000    101
            1  2  0  1     3.000    102
            1  1  1  1     3.000    103
            1  0  2  1     3.000    104
            0  3  0  1     3.000    105
            0  2  1  1     3.000    106
            0  1  2  1     3.000    107
            0  0  3  1     3.000    108
            3  0  0  1     1.390    109
            2  1  0  1     1.390    110
            2  0  1  1     1.390    111
            1  2  0  1     1.390    112
            1  1  1  1     1.390    113
            1  0  2  1     1.390    114
            0  3  0  1     1.390    115
            0  2  1  1     1.390    116
            0  1  2  1     1.390    117
            0  0  3  1     1.390    118
            1  0  0  5     1.550    119
            0  1  0  5     1.550    120
            0  0  1  5     1.550    121
1
 ***************************************************************************************************



                                              ***********************
                                              *  T E C H N I C A L  *
                                              ***********************
  



 =============================================================
 P A R A L L E L I Z A T I O N  and  V E C T O R I Z A T I O N
 =============================================================
  
 Nr of parallel processes:                                1
 Maximum vector length in NumInt loops:                 128

 IO buffersize (Mb):                                     64.000000



 =====================
 S C F   U P D A T E S
 =====================
  
 Max. nr. of cycles:                               300
 Convergence criterion:                              0.0000000100
   secondary criterion:                              0.0000000100

 Mix parameter (when DIIS does not apply):           0.2000000000
 Special mix parameter for the first cycle:          1.0000000000
 Mixed ADIIS+DIIS will be used
    Max number of expansion vectors:                10
    Pure ADIIS when Max([F,P]) is above              0.1000000000
    Pure DIIS when Max([F,P]) is below               0.0010000000
 Automatic ElectronSmearing (in case of problematic SCF convergence) disabled



 =================
 P R E C I S I O N  ***  (General: NumInt, NeglectFunctionTails, ...)  ***
 =================
  

 NumInt:           Target precision:                12.0000000000
 -------           Initial precision:               10.0000000000
                   Min. precision (optimization):   10.0000000000

 Neglect Functions:          Basis functions:        0.1000000000E-13
 ------------------          Fit functions:          0.1000000000E-13



 ===========================
 L I N E A R   S C A L I N G
 ===========================
  

 Cut-off radii density fit:                        0.1000000000E-97
 Overlap cut-off criterion AO matrix elements:     0.1000000000E-97
 Cut-offs for Coulomb potential and fitted density:0.1000000000E-97
 Cut-off criterion for Coulomb multipole terms:    0.1000000000E-97
 Progressive Convergence parameter:                 0.000000000    
1
 ***************************************************************************************************



                                            ***************************
                                            *  C O M P U T A T I O N  *
                                            ***************************
  

 Number of elements of the density matrix on this node (used, total):      7381      7381



 ===========================================
 Numerical Integration : Fuzzy Cells (Becke)
 ===========================================
  
 Becke grid quality: VERYGOOD       
  
 Lebedev angular grid order:             min:  13 max:  41
 Nr. of radial points:                   min: 179 max: 179

 Total nr. of points:        179
 Nr. of blocks:                2
 Block length:                90
 Nr. of dummy points:          1


 Test of Precision of the Numerical Integration Grid
 ===================================================

 Integral of the Total Core Density:                  59.99999992874480
 Relative Error:                                      -1.188E-09



 ========================
 Density Fitting (zlmFit)
 ========================
  
 ZlmFit Fit Quality: VERYGOOD       
  
 Max L-expansion:                        min:   0 max:   0
 Nr. of radial interpolation points:     min: 400 max: 400



 =====
 S C F  ***  ScaSCF  ***
 =====
  

 CYCLE    1
 SCF Error: norm([F,P])=      0.000000000000, max([F,P])=      0.000000000000
 orbitals (Q,E):
 ---------------
 S :1...8            ( 2.00   -41.2611)  ( 2.00   -24.6775)  ( 2.00   -16.3400)  ( 0.00   -11.6656)
                     ( 0.00    -8.3638)  ( 0.00    -5.6859)  ( 0.00    -3.6561)  ( 0.00  4503.8968)
 P :1...6            ( 6.00   -36.6794)  ( 6.00   -22.5539)  ( 0.00   -15.2813)  ( 0.00   -10.9027)
                     ( 0.00    -7.7629)  ( 0.00    -5.2511)
 D :1...5            (10.00   -31.6473)  ( 1.00   -19.4880)  ( 0.00   -12.1804)  ( 0.00    -7.2064)
                     ( 0.00    -3.9871)
 F :1...3            ( 3.00   -25.7745)  ( 0.00   -14.4893)  ( 0.00    -7.4234)

 CYCLE    2
  SDIIS (wt  0.000):  1.0000  0.0000
 A-DIIS (wt  1.000):  0.1165  0.8835
  DIIS coefficients:  0.1165  0.8835
 SCF Error: norm([F,P])=     26.654378827873, max([F,P])=      7.886015523791
 orbitals (Q,E):
 ---------------
 S :1...4            ( 2.00    -8.3945)  ( 2.00    -1.7731)  ( 2.00    -0.7567)  ( 0.00    -0.4345)
 P :1...3            ( 6.00    -5.2214)  ( 6.00    -1.2292)  ( 0.00    -0.5907)
 D :1...3            (10.00    -2.1087)  ( 1.00    -0.7104)  ( 0.00    -0.4030)
 F :1...2            ( 3.00    -0.5142)  ( 0.00     0.1127)

 CYCLE    3
  SDIIS (wt  0.000):  0.3349  0.6651
 A-DIIS (wt  1.000):  0.1579  0.8421
  DIIS coefficients:  0.1579  0.8421
 SCF Error: norm([F,P])=     16.838246031843, max([F,P])=      3.579788925717
 orbitals (Q,E):
 ---------------
 S :1...4            ( 2.00   -14.2123)  ( 2.00    -3.2175)  ( 2.00    -0.4804)  ( 0.00    -0.0225)
 P :1...3            ( 6.00   -10.3104)  ( 6.00    -2.0218)  ( 0.00    -0.1959)
 D :1...3            (10.00    -6.1514)  ( 1.00    -0.7689)  ( 0.00     0.0127)
 F :1...2            ( 3.00    -1.9975)  ( 0.00     0.1024)

 CYCLE    4
  SDIIS (wt  0.000): -0.0966  0.2849  0.8118
 A-DIIS (wt  1.000):  0.0000  0.2423  0.7577
  DIIS coefficients:  0.0000  0.2423  0.7577
 SCF Error: norm([F,P])=      8.334193275849, max([F,P])=      1.801865802069
 orbitals (Q,E):
 ---------------
 S :1...4            ( 2.00   -10.4280)  ( 2.00    -1.3662)  ( 2.00    -0.0740)  ( 0.00     0.0647)
 P :1...3            ( 6.00    -6.7885)  ( 6.00    -0.5752)  ( 0.00     0.0417)
 D :1...3            (10.00    -2.9812)  ( 1.00     0.0163)  ( 0.00     0.1126)
 F :1...2            ( 3.00     0.2110)  ( 0.00     0.4742)

 CYCLE    5
  SDIIS (wt  0.000): -0.0164 -0.0840  0.2372  0.8632
 A-DIIS (wt  1.000):  0.0000  0.0000  0.2143  0.7857
  DIIS coefficients:  0.0000  0.0000  0.2143  0.7857
 SCF Error: norm([F,P])=      3.509384133412, max([F,P])=      0.678472829801
 orbitals (Q,E):
 ---------------
 S :1...4            ( 2.00   -11.9673)  ( 2.00    -2.2013)  ( 2.00    -0.2818)  ( 0.00    -0.0124)
 P :1...3            ( 6.00    -8.2397)  ( 6.00    -1.2355)  ( 0.00    -0.1039)
 D :1...3            (10.00    -4.3018)  ( 1.00    -0.3113)  ( 0.00     0.0173)
 F :1...2            ( 3.00    -0.6204)  ( 0.00     0.1878)

 CYCLE    6
  SDIIS (wt  0.000):  0.0036 -0.0234 -0.0662  0.3410  0.7451
 A-DIIS (wt  1.000):  0.0000  0.0000  0.0000  0.2471  0.7529
  DIIS coefficients:  0.0000  0.0000  0.0000  0.2471  0.7529
 SCF Error: norm([F,P])=      1.775482677207, max([F,P])=      0.365500637628
 orbitals (Q,E):
 ---------------
 S :1...4            ( 2.00   -11.0758)  ( 2.00    -1.6428)  ( 2.00    -0.1312)  ( 0.00     0.0328)
 P :1...3            ( 6.00    -7.3832)  ( 6.00    -0.7785)  ( 0.00    -0.0063)
 D :1...3            (10.00    -3.5000)  ( 1.00    -0.0559)  ( 0.00     0.0665)
 F :1...2            ( 3.00    -0.0232)  ( 0.00     0.3305)

 CYCLE    7
  SDIIS (wt  0.000): -0.0004  0.0001  0.0062 -0.1142  0.1212  0.9871
 A-DIIS (wt  1.000):  0.0000  0.0000  0.0000  0.0000  0.0583  0.9417
  DIIS coefficients:  0.0000  0.0000  0.0000  0.0000  0.0583  0.9417
 SCF Error: norm([F,P])=      0.658091457941, max([F,P])=      0.117509620467
 orbitals (Q,E):
 ---------------
 S :1...4            ( 2.00   -11.4829)  ( 2.00    -1.8554)  ( 2.00    -0.1782)  ( 0.00     0.0120)
 P :1...3            ( 6.00    -7.7658)  ( 6.00    -0.9438)  ( 0.00    -0.0410)
 D :1...3            (10.00    -3.8470)  ( 1.00    -0.1323)  ( 0.00     0.0419)
 F :1...2            ( 3.00    -0.2509)  ( 0.00     0.2718)

 CYCLE    8
  SDIIS (wt  0.000):  0.0001  0.0007 -0.0037 -0.0311 -0.0217  0.5685  0.4873
 A-DIIS (wt  1.000):  0.0000  0.0000  0.0000  0.0000  0.0000  0.5160  0.4840
  DIIS coefficients:  0.0000  0.0000  0.0000  0.0000  0.0000  0.5160  0.4840
 SCF Error: norm([F,P])=      0.701419966589, max([F,P])=      0.117491547438
 orbitals (Q,E):
 ---------------
 S :1...4            ( 2.00   -11.2698)  ( 2.00    -1.7432)  ( 2.00    -0.1541)  ( 0.00     0.0204)
 P :1...3            ( 6.00    -7.5654)  ( 6.00    -0.8562)  ( 0.00    -0.0249)
 D :1...3            (10.00    -3.6650)  ( 1.00    -0.0904)  ( 0.00     0.0518)
 F :1...2            ( 3.00    -0.1281)  ( 0.00     0.2990)

 CYCLE    9
  SDIIS (wt  0.971): -0.0001 -0.0002  0.0013  0.0007 -0.0193  0.0372  0.0466  0.9337
 A-DIIS (wt  0.029):  0.0000  0.0000  0.0000  0.0000  0.0000  0.0000  0.0000  1.0000
  DIIS coefficients: -0.0001 -0.0002  0.0013  0.0007 -0.0187  0.0361  0.0453  0.9356
 SCF Error: norm([F,P])=      0.018479534620, max([F,P])=      0.003862915624
 orbitals (Q,E):
 ---------------
 S :1...4            ( 2.00   -11.2631)  ( 2.00    -1.7384)  ( 2.00    -0.1533)  ( 0.00     0.0204)
 P :1...3            ( 6.00    -7.5587)  ( 6.00    -0.8523)  ( 0.00    -0.0247)
 D :1...3            (10.00    -3.6585)  ( 1.00    -0.0888)  ( 0.00     0.0519)
 F :1...2            ( 3.00    -0.1232)  ( 0.00     0.3000)

 CYCLE   10
  SDIIS (wt  1.000):  0.0000  0.0000 -0.0001 -0.0002  0.0010 -0.0009 -0.0016 -0.0161  1.0179
  DIIS coefficients:  0.0000  0.0000 -0.0001 -0.0002  0.0010 -0.0009 -0.0016 -0.0161  1.0179
 SCF Error: norm([F,P])=      0.001103623304, max([F,P])=      0.000183981365
 orbitals (Q,E):
 ---------------
 S :1...4            ( 2.00   -11.2637)  ( 2.00    -1.7389)  ( 2.00    -0.1535)  ( 0.00     0.0203)
 P :1...3            ( 6.00    -7.5593)  ( 6.00    -0.8527)  ( 0.00    -0.0248)
 D :1...3            (10.00    -3.6590)  ( 1.00    -0.0890)  ( 0.00     0.0518)
 F :1...2            ( 3.00    -0.1237)  ( 0.00     0.2998)

 CYCLE   11
  SDIIS (wt  1.000):  0.0000 -0.0000  0.0000  0.0000  0.0000 -0.0006 -0.0003 -0.0019  0.1254  0.8773
  DIIS coefficients:  0.0000 -0.0000  0.0000  0.0000  0.0000 -0.0006 -0.0003 -0.0019  0.1254  0.8773
 SCF Error: norm([F,P])=      0.000084524714, max([F,P])=      0.000021565296
 orbitals (Q,E):
 ---------------
 S :1...4            ( 2.00   -11.2636)  ( 2.00    -1.7388)  ( 2.00    -0.1535)  ( 0.00     0.0203)
 P :1...3            ( 6.00    -7.5592)  ( 6.00    -0.8527)  ( 0.00    -0.0248)
 D :1...3            (10.00    -3.6590)  ( 1.00    -0.0890)  ( 0.00     0.0518)
 F :1...2            ( 3.00    -0.1236)  ( 0.00     0.2998)

 CYCLE   12
  SDIIS (wt  1.000): -0.0000  0.0000  0.0000  0.0000 -0.0000 -0.0000 -0.0001 -0.0035  0.0147  0.9889
  DIIS coefficients: -0.0000  0.0000  0.0000  0.0000 -0.0000 -0.0000 -0.0001 -0.0035  0.0147  0.9889
 SCF Error: norm([F,P])=      0.000002526888, max([F,P])=      0.000000528341
 orbitals (Q,E):
 ---------------
 S :1...4            ( 2.00   -11.2636)  ( 2.00    -1.7388)  ( 2.00    -0.1535)  ( 0.00     0.0203)
 P :1...3            ( 6.00    -7.5592)  ( 6.00    -0.8527)  ( 0.00    -0.0248)
 D :1...3            (10.00    -3.6590)  ( 1.00    -0.0890)  ( 0.00     0.0518)
 F :1...2            ( 3.00    -0.1236)  ( 0.00     0.2998)

 CYCLE   13
  SDIIS (wt  1.000): -0.0000 -0.0001  0.0009  0.0000  0.9992
  DIIS coefficients: -0.0000 -0.0001  0.0009  0.0000  0.9992
 SCF Error: norm([F,P])=      0.000000082507, max([F,P])=      0.000000016825
 orbitals (Q,E):
 ---------------
 S :1...4            ( 2.00   -11.2636)  ( 2.00    -1.7388)  ( 2.00    -0.1535)  ( 0.00     0.0203)
 P :1...3            ( 6.00    -7.5592)  ( 6.00    -0.8527)  ( 0.00    -0.0248)
 D :1...3            (10.00    -3.6590)  ( 1.00    -0.0890)  ( 0.00     0.0518)
 F :1...2            ( 3.00    -0.1236)  ( 0.00     0.2998)

 CYCLE   14
  SDIIS (wt  1.000):  0.0000 -0.0000 -0.0000 -0.0087  1.0087
  DIIS coefficients:  0.0000 -0.0000 -0.0000 -0.0087  1.0087
 SCF Error: norm([F,P])=      0.000000000947, max([F,P])=      0.000000000180
 orbitals (Q,E):
 ---------------
 S :1...4            ( 2.00   -11.2636)  ( 2.00    -1.7388)  ( 2.00    -0.1535)  ( 0.00     0.0203)
 P :1...3            ( 6.00    -7.5592)  ( 6.00    -0.8527)  ( 0.00    -0.0248)
 D :1...3            (10.00    -3.6590)  ( 1.00    -0.0890)  ( 0.00     0.0518)
 F :1...2            ( 3.00    -0.1236)  ( 0.00     0.2998)

 SCF CONVERGED

 CYCLE   15
1
 ***************************************************************************************************



                                                *******************
                                                *  R E S U L T S  *
                                                *******************
  
 *** Setting up for NEW gradients in Focky
 *** Using FIT density in Focky

 Scaled ZORA Orbital Energies, per Irrep and Spin:
 =================================================
                        Occup              E (au)              E (eV)       Diff (eV) with prev. cycle
                        -----      --------------------        ------       --------------------------
 S
               1        2.000     -0.11263598947908E+02      -306.498               3.38E-10
               2        2.000     -0.17388147949234E+01       -47.316               2.77E-10
               3        2.000     -0.15346662410759E+00        -4.176               1.02E-10
               4        0.000      0.20313353623081E-01         0.553
               5        0.000      0.30985278913318E+00         8.432
               6        0.000      0.16340021433543E+01        44.463
               7        0.000      0.10787993981757E+02       293.556
               8        0.000      0.45311962989236E+04    123300.125
 P
               1        6.000     -0.75592279791213E+01      -205.697               3.26E-10
               2        6.000     -0.85268828901839E+00       -23.203               2.48E-10
               3        0.000     -0.24816283874045E-01        -0.675
               4        0.000      0.37617078026100E+00        10.236
               5        0.000      0.18349952200022E+01        49.933
               6        0.000      0.83639877346140E+01       227.596
 D
               1       10.000     -0.36589641407546E+01       -99.565               3.16E-10
               2        1.000     -0.89001764686666E-01        -2.422               1.48E-10
               3        0.000      0.51811681568831E-01         1.410
               4        0.000      0.42535064965293E+00        11.574
               5        0.000      0.33922720275799E+01        92.308
 F
               1        3.000     -0.12359705497562E+00        -3.363               2.71E-10
               2        0.000      0.29980294816974E+00         8.158
               3        0.000      0.21739070922396E+01        59.155


 Partially Occupied:
               2 D                -0.89001764686666E-01
               1 F                -0.12359705497562E+00
  
 HOMO :        3 S                -0.15346662410759E+00
 LUMO :        3 P                -0.24816283874045E-01
  


 Orbital Energies, all Irreps
 ========================================

 Irrep        no.  (spin)   Occup              E (au)                E (eV)
 ---------------------------------------------------------------------------
 S             1             2.00       -0.11263598947908E+02      -306.4981
 P             1             6.00       -0.75592279791213E+01      -205.6971
 D             1            10.00       -0.36589641407546E+01       -99.5655
 S             2             2.00       -0.17388147949234E+01       -47.3156
 P             2             6.00       -0.85268828901839E+00       -23.2028
 S             3             2.00       -0.15346662410759E+00        -4.1760
 F             1             3.00       -0.12359705497562E+00        -3.3632
 D             2             1.00       -0.89001764686666E-01        -2.4219
 P             3             0.00       -0.24816283874045E-01        -0.6753
 S             4             0.00        0.20313353623081E-01         0.5528
 D             3             0.00        0.51811681568831E-01         1.4099
 F             2             0.00        0.29980294816974E+00         8.1581
 S             5             0.00        0.30985278913318E+00         8.4315
 P             4             0.00        0.37617078026100E+00        10.2361
 D             4             0.00        0.42535064965293E+00        11.5744
 S             6             0.00        0.16340021433543E+01        44.4635
 P             5             0.00        0.18349952200022E+01        49.9328
 F             3             0.00        0.21739070922396E+01        59.1550
 D             5             0.00        0.33922720275799E+01        92.3084
 P             6             0.00        0.83639877346140E+01       227.5957
 S             7             0.00        0.10787993981757E+02       293.5563
 S             8             0.00        0.45311962989236E+04    123300.1248


 Scaled ZORA Orbital Energies of the Core Orbitals:
 ==================================================

 (Note that the atoms are grouped by atomtype, see the labels, and may hence NOT be in input order)

 AtomType  Orbital  Atom                   E (au)                        E (eV)
 --------  -------  ----           --------------------        ----------------
 U           1S        1          -0.42478474815762E+04             -115589.811
             2S        1          -0.79373718708539E+03              -21598.688
             3S        1          -0.20057914776100E+03               -5458.036
             4S        1          -0.51197213629992E+02               -1393.147
             2P        1          -0.65894122404905E+03              -17930.703
             3P        1          -0.16313768534217E+03               -4439.202
             4P        1          -0.38988555102331E+02               -1060.933
             3D        1          -0.13106658911463E+03               -3566.503
             4D        1          -0.26803403350270E+02                -729.358
             4F        1          -0.13763035613087E+02                -374.511



 =======================================
 M U L L I K E N   P O P U L A T I O N S
 =======================================
  
 The survey below gives for each atom:
 a) the total charge (Z minus electrons)
 b) the net spin polarization (nr of electrons spin-A minus spin-B)
 c) for each spin the atomic electron valence density (integrated) per L-value.

 Atom              Charge    Spin density          S         P         D         F
 ----              ------    ------------       ------    ------    ------    ------
 1 U              -0.0000                       6.0000   12.0000   11.0000    3.0000

 Populations of individual BAS functions
 ----------------------------------------
 1 U           -0.0038 -0.0042  0.0073 -0.0456 -0.0034 -0.0034 -0.0034  0.0049  0.0049  0.0049
                0.0165  0.0165  0.0165  0.0091  0.0136  0.0136  0.0091  0.0136  0.0091  0.0399
                0.0599  0.0599  0.0399  0.0599  0.0399  0.0050  0.0100  0.0100  0.0100  0.0125
                0.0100  0.0050  0.0100  0.0100  0.0050  1.2355  0.8866  0.0006  1.4700  0.5518
                0.8242  0.9408  0.1370  1.4883  1.4883  1.4883  0.5370  0.5370  0.5370  0.9851
                0.9851  0.9851  0.8819  0.8819  0.8819  0.0848  0.0848  0.0848  0.0604  0.0906
                0.0906  0.0604  0.0906  0.0604  0.8926  1.3389  1.3389  0.8926  1.3389  0.8926
                0.3944  0.5916  0.5916  0.3944  0.5916  0.3944  0.0612  0.0919  0.0919  0.0612
                0.0919  0.0612  0.0090  0.0135  0.0135  0.0090  0.0135  0.0090  0.0663  0.1325
                0.1325  0.1325  0.1657  0.1325  0.0663  0.1325  0.1325  0.0663  0.0890  0.1780
                0.1780  0.1780  0.2225  0.1780  0.0890  0.1780  0.1780  0.0890  0.0112  0.0223
                0.0223  0.0223  0.0279  0.0223  0.0112  0.0223  0.0223  0.0112  0.0048  0.0048
                0.0048

 Gross Charges per Atom (Z minus electrons)
 ==========================================
            -0.0000
 Net Total: -0.00000000



 =======================================================================
 Electrostatic potential at the Nuclei due to electrons and other nuclei
 =======================================================================
  
         Atom                  Potential
         ----                  ---------
     1)   U                 787.10274975
 
 
 ========================
 No memory problems found
 ========================
 
 Maximum number of active allocate calls:         492
 
 *******************************************************************************

                             A D F   E X I T
 NORMAL TERMINATION



 =================
 Timing Statistics
 =================
  
 Total Used :                     CPU=        2.21      System=        0.06     Elapsed=        2.29

 Calls  Section                     ( Mean, Percentage )
 ---------------------------------------------------------------------------------------------------
     3  ><      ................      0.00    0.07             0.00    0.01             0.00    0.08
     1  INIT    ................      0.02    0.92             0.02   36.49             0.05    2.19
     1  GEOMET  ................      0.02    0.72             0.00    6.41             0.02    0.88
     1  INPUTA  ................      0.00    0.17             0.00    2.86             0.01    0.25
     1  MAINSY  ................      0.04    1.83             0.00    1.71             0.04    1.83
     1  SYMFIT  ................      0.00    0.06             0.00    1.40             0.00    0.10
     1  CORORT  ................      0.00    0.15             0.00    3.56             0.01    0.24
     1  SYMORB  ................      0.00    0.02             0.00    2.96             0.00    0.09
     1  CLSMAT  ................      0.01    0.66             0.00    0.71             0.02    0.66
     1  ORTHON  ................      0.00    0.15             0.00    1.74             0.00    0.21
     1  GENPT   ................      0.07    3.15             0.00    0.00             0.07    3.06
     1  PTBAS   ................      0.02    0.78             0.00    1.50             0.02    0.80
    15  FOCKY   ................      0.12   83.54             0.00   18.69             0.12   81.41
    15  FOCKTR  ................      0.00    0.72             0.00    3.25             0.00    0.71
    15  SDIIS   ................      0.00    1.28             0.00    8.50             0.00    1.59
     1  COREPS  ................      0.10    4.48             0.00    1.72             0.10    4.40
     1  POPAN   ................      0.01    0.25             0.00    1.69             0.01    0.29
     1  DEBYE   ................      0.00    0.09             0.00    0.05             0.00    0.09
     1  EXIT PROCEDURE .........      0.02    0.96             0.00    6.74             0.03    1.12


 Currently Open Files (EXIT00)
 ====================

 Unit    Access Format  Status   Type       Ident (file)
 -------------------------------------------------------
   3      SEQ    FORM   TRANSP  NORMAL      LOGFILE
                                          ( logfile )


 Buffered I/O statistics
 =======================
 Memory available:                     67108864
 Number of records fitting in memory:     16131
 Input :   0.1% of                        34663  *4k bytes
 Output:  11.3% of                         2066  *4k bytes
 Records from serial files evicted:           0
                    others evicted:           0
 Hash table lookups:      90887 with          0 conflicts (  0.00%)

 ***************************************************************************************************
 (LOGFILE)
 <May30-2018> <15:57:35>  DIRAC 2017  RunTime: May30-2018 15:57:35  Nodes: 1  Procs: 1
 <May30-2018> <15:57:36>  NORMAL TERMINATION
 <May30-2018> <15:57:36>  END
 <May30-2018> <15:57:36>  ADF 2017  RunTime: May30-2018 15:57:36  Nodes: 1  Procs: 1
 <May30-2018> <15:57:36>  Uranium (TZP, 4f frozen)
 <May30-2018> <15:57:36>  RunType   : CREATE
 <May30-2018> <15:57:36>  Net Charge: 0 (Nuclei minus Electrons)
 <May30-2018> <15:57:36>  Symmetry  : ATOM
  Coordinates
    Atom         X           Y           Z   (Angstrom)
    1.U         0.000000    0.000000    0.000000
 <May30-2018> <15:57:36>  >>>> CORORT
 <May30-2018> <15:57:36>  >>>> CLSMAT
 <May30-2018> <15:57:36>  >>>> ORTHON
 <May30-2018> <15:57:36>  >>>> GENPT
 <May30-2018> <15:57:36>  Block Length=  90
 <May30-2018> <15:57:36>  >>>> PTBAS
 <May30-2018> <15:57:36>  >>>> CYCLE
 <May30-2018> <15:57:37>              |Error|         MaxErr       Wt(A-DIIS)
 <May30-2018> <15:57:37>      1      0.00000000      0.00000000
 <May30-2018> <15:57:37>      2     26.65437883      7.88601552    100.0
 <May30-2018> <15:57:37>      3     16.83824603      3.57978893    100.0
 <May30-2018> <15:57:37>      4      8.33419328      1.80186580    100.0
 <May30-2018> <15:57:37>      5      3.50938413      0.67847283    100.0
 <May30-2018> <15:57:37>      6      1.77548268      0.36550064    100.0
 <May30-2018> <15:57:37>      7      0.65809146      0.11750962    100.0
 <May30-2018> <15:57:37>      8      0.70141997      0.11749155    100.0
 <May30-2018> <15:57:38>      9      0.01847953      0.00386292      2.9
 <May30-2018> <15:57:38>     10      0.00110362      0.00018398      0.0
 <May30-2018> <15:57:38>     11      0.00008452      0.00002157      0.0
 <May30-2018> <15:57:38>     12      0.00000253      0.00000053      0.0
 <May30-2018> <15:57:38>     13      0.00000008      0.00000002      0.0
 <May30-2018> <15:57:38>     14      0.00000000      0.00000000      0.0
 <May30-2018> <15:57:38>  SCF converged
 <May30-2018> <15:57:38>     15      0.00000000      0.00000000      0.0
 <May30-2018> <15:57:38>  >>>> POPAN
 <May30-2018> <15:57:38>  >>>> DEBYE
 <May30-2018> <15:57:38>  NORMAL TERMINATION
 <May30-2018> <15:57:38>  END

 *******************************************************************************
 *                                                                             *
 *  -------------------------------------                                      *
 *   Amsterdam Density Functional  (ADF)         2017                          *
 *  -------------------------------------                                      *
 *                                               r61155 2017-09-11             *
 *                                                                             *
 *                                                                             *
 *                            =====================                            *
 *                            |                   |                            *
 *                            |     D I R A C     |                            *
 *                            |                   |                            *
 *                            =====================                            *
 *                                                                             *
 *                                                                             *
 *   Online information and documentation:  https://www.scm.com/support/       *
 *   E-mail:  support@scm.com   info@scm.com                                   *
 *                                                                             *
 *   Scientific publications using ADF results must be properly referenced     *
 *   See the User Manuals (or the web site) for recommended citations          *
 *   The terms and conditions of the End User License Agreement apply to       *
 *   the use of ADF, https://www.scm.com/license-terms/                        *
 *                                                                             *
 ***********************  x86_64_linux_intel / openmpi  ************************
 
 Licensed to: Prof. Pere Miro / University of South Dakota, Department of Chemistry / Vermillion / SD / USA
 SCM User ID: u19501
  
 DIRAC 2017  RunTime: May30-2018 15:57:38  Nodes: 1  Procs: 1

 Temporary files are created in /tmp/30065/kid_0.XHYYaE

1
 OXYGEN ATOM 1s CORE RELATIVISTIC, Point Nuc, A and c from li
 N J RN H ZN XION ANUC CLIGHT
 5000    4100.00000000197.36710137  8.00000000  0.00000000   15.994914  0.1370360E+03
  PH   PHI     EPS        DEL        DELRVR
  0.30  0.30     2500.00  0.00001000  0.00001000
 IDIRC  NC1  NDEBU NPRIN  IPUN IRCOR IWCOR
   1   300     0     0     0     0     1
   XALPHA      XLATTER      RNUC
  0.70000000  0.00000000  0.00000000 Point Charge
   XN   XL   XJ      XE          XZ      XDELL
  1.0  0.0  0.5      -5.000       2.000     0.00000
  2.0  0.0  0.5      -1.000       2.000     0.00000
  2.0  1.0  0.5      -1.000       2.000     0.00000
  2.0  1.0  1.5      -1.000       2.000     0.00000
 ICORP=  0  NPCL=  0  DEMP=0.00  PEPS=0.000000
 R(1)=  0.1000000E-08 D=  0.1005080E+01 RNUC=  0.0000000E+00
 converged at cycle   28  DENSITY AVERAGING    0.2400
  MAXIMUM ERROR IN R.V(R) IS   0.81125670E-05
 Q,EY,EV,EZ,ESUM,ETOT,RHO  0.800000E+01 -0.101247E+02 -0.114961E+03 -0.177573E+03 -0.405053E+02 -0.743427E+02  0.414766E-14


 DIRAC CALCULATION
1                    OXYGEN ATOM 1s CORE RELATIVISTIC, Point Nuc, A and c from libtc


 EXCHANGE COEFFICIENT=  0.7000000           TAIL CORRECTION=  0.           NUCLEAR RADIUS=  0.000E+00
0                       ORBITAL    N    L    J     ELECTRONS     EIGENVALUE                DELTA OF EIGENV.

                          1S1/2  1.0  0.0  0.5     2.000       -0.1880014E+02                 0.7264359E-06
                          2S1/2  2.0  0.0  0.5     2.000       -0.8412236E+00                 0.5932752E-05
                          2P1/2  2.0  1.0  0.5     2.000       -0.3063203E+00                 0.5998471E-05
                          2P3/2  2.0  1.0  1.5     2.000       -0.3049609E+00                 0.5986971E-05


                                        NUCLEAR CHARGE=    8.000000
                            INTEGRAL OF CHARGE DENSITY=    8.000000
                           SUM OF THE ORBITAL ENERGIES=    -40.5053
                                          TOTAL ENERGY=    -74.3427
                                        KINETIC ENERGY=     74.4552
                             NUCLEAR ATTRACTION ENERGY=   -177.5730
                             ELECTRON REPULSION ENERGY=     36.3686
                                       EXCHANGE ENERGY=     -7.5935

 *******************************************************************************

                             D I R A C   E X I T
 NORMAL TERMINATION



 =================
 Timing Statistics
 =================
  
 Total Used :                     CPU=        0.11      System=        0.02     Elapsed=        0.13

 Calls  Section                     ( Mean, Percentage )
 ---------------------------------------------------------------------------------------------------
     2  ><      ................      0.00    0.00             0.00    0.01             0.00    0.01
     1  EXIT PROCEDURE .........      0.11  100.00             0.02   99.99             0.13   99.99


 Currently Open Files (EXIT00)
 ====================

 Unit    Access Format  Status   Type       Ident (file)
 -------------------------------------------------------
   3      SEQ    FORM   TRANSP  NORMAL      LOGFILE
                                          ( logfile )


 Buffered I/O statistics
 =======================
 Memory available:                     67108864
 Number of records fitting in memory:     16131
 Input : 100.0% of                            0  *4k bytes
 Output: 100.0% of                            0  *4k bytes
 Records from serial files evicted:           0
                    others evicted:           0
 Hash table lookups:          0 with          0 conflicts (100.00%)

Create O   file=TZP-O.1s
XC
GGA PBE
End
relativistic ZORA
Corepotentials t12.rel
End Input

 *******************************************************************************
 *                                                                             *
 *  -------------------------------------                                      *
 *   Amsterdam Density Functional  (ADF)         2017                          *
 *  -------------------------------------                                      *
 *                                               r61155 2017-09-11             *
 *                                                                             *
 *                                                                             *
 *                              =================                              *
 *                              |               |                              *
 *                              |     A D F     |                              *
 *                              |               |                              *
 *                              =================                              *
 *                                                                             *
 *                                                                             *
 *   Online information and documentation:  https://www.scm.com/support/       *
 *   E-mail:  support@scm.com   info@scm.com                                   *
 *                                                                             *
 *   Scientific publications using ADF results must be properly referenced     *
 *   See the User Manuals (or the web site) for recommended citations          *
 *   The terms and conditions of the End User License Agreement apply to       *
 *   the use of ADF, https://www.scm.com/license-terms/                        *
 *                                                                             *
 ***********************  x86_64_linux_intel / openmpi  ************************
 
 Licensed to: Prof. Pere Miro / University of South Dakota, Department of Chemistry / Vermillion / SD / USA
 SCM User ID: u19501
  
 ADF 2017  RunTime: May30-2018 15:57:39  Nodes: 1  Procs: 1

 Temporary files are created in /tmp/30065/kid_0.VGYUgQ

 Oxygen (TZP, 1s frozen)



 ===========================
 A T T A C H E D   F I L E S
 ===========================
  
 CREATE - Data File:    TZP-O.1s
                        Oxygen (TZP, 1s frozen)
 Core Potentials:
         file : t12.rel



 ===============================
 M O D E L   P A R A M E T E R S
 ===============================
  
 DENSITY FUNCTIONAL POTENTIAL (scf)
    LDA:                               PW92                                    == Not Default ==
    Gradient Corrections:              PBEc PBEx                               == Not Default ==

 SPIN  (restricted / unrestr.)
    Molecule:                          Restricted                               

 OTHER ASPECTS
    Relativistic Corrections:          scalar (ZORA,MAPA)                      == Not Default ==

    Nuclear Charge Density Model:      Point Charge Nuclei                      
    Core Treatment:                    Frozen Orbital(s)                        

    Hyperfine or Zeeman Interaction:   ---                                      



 =====================================
 S Y M M E T R Y ,   E L E C T R O N S
 =====================================
  
 Symmetry: ATOM

 Irreducible Representations, including subspecies
 -------------------------------------------------
 S
 P:x  P:y  P:z
 D:z2  D:x2-y2  D:xy  D:xz  D:yz
 F:z3  F:z  F:xyz  F:z2x  F:z2y  F:x  F:y


 Configuration of Valence Electrons
 ==================================

          Occupation Numbers
          -------------------------------------------------
 S        2
 P        4
 D        0
 F        0
          -------------------------------------------------

 Total:   6

 Net Charge: 0 (Nuclei minus Electrons)

 Preset values for MO occupations will be applied through SCF cycle no. 1000000
 Thereafter, the program will assign electrons to MOs that are spatially
 similar to the occupied MOs in a "reference" cycle ("KeepOrbitals").
 The reference cycle is always the PREVIOUS cycle: it will evolve with
 the SCF procedure.



 ================================
 (Slater-type)  F U N C T I O N S  ***  (Basis and Fit)  ***
 ================================
  

 Atom Type    1  (O)
 ==============

 Valence Basis Sets:   8
 -----------------------
   1 S    7.360000
   2 S    1.720000
   2 S    2.880000
   2 S    7.580000
   2 P    1.120000
   2 P    2.080000
   2 P    4.080000
   3 D    2.000000

 Frozen Core Shells
 ------------------
    S:  1


 BAS: List of all Elementary Cartesian Basis Functions
 =====================================================

 The numbering in the list below (to the right of the function characteristics) is referred
 to in print-outs of MO eigenvectors and Mulliken populations in the BAS representation
 (as contrasted to the SFO representation).

 Notes:
 1. The functions are characterized by a polynomial prefactor (powers of x,y,z and r) and
    an exponential decay factor alpha.
 2. Since the basis sets are specific for an atom TYPE, the individual functions occur on
    all atoms of that type.
 3. The word 'Core' in the left margin signals that it is a Core Function (CF) : not a
    degree of freedom in the valence set, but only used to ensure orthogonalization of
    the other valence basis functions on the frozen Core Orbitals.


 (power of) X  Y  Z  R     Alpha  on Atom
            ==========     =====     ==========

 O                                    1
                                  ---------------------------------------------------------------------------
    Core    0  0  0  0     7.360      1
            0  0  0  1     1.720      2
            0  0  0  1     2.880      3
            0  0  0  1     7.580      4
            1  0  0  0     1.120      5
            0  1  0  0     1.120      6
            0  0  1  0     1.120      7
            1  0  0  0     2.080      8
            0  1  0  0     2.080      9
            0  0  1  0     2.080     10
            1  0  0  0     4.080     11
            0  1  0  0     4.080     12
            0  0  1  0     4.080     13
            2  0  0  0     2.000     14
            1  1  0  0     2.000     15
            1  0  1  0     2.000     16
            0  2  0  0     2.000     17
            0  1  1  0     2.000     18
            0  0  2  0     2.000     19

 Total number of charge fitting functions (nprimf)        82
 Total number of Cartesian basis functions (naos)         19
 Total number of Cartesian core functions  (ncos)          1



 BAS: List of all Elementary Cartesian Basis Functions
 =====================================================

 The numbering in the list below (to the right of the function characteristics) is referred
 to in print-outs of MO eigenvectors and Mulliken populations in the BAS representation
 (as contrasted to the SFO representation).

 Notes:
 1. The functions are characterized by a polynomial prefactor (powers of x,y,z and r) and
    an exponential decay factor alpha.
 2. Since the basis sets are specific for an atom TYPE, the individual functions occur on
    all atoms of that type.
 3. The word 'Core' in the left margin signals that it is a Core Function (CF) : not a
    degree of freedom in the valence set, but only used to ensure orthogonalization of
    the other valence basis functions on the frozen Core Orbitals.


 (power of) X  Y  Z  R     Alpha  on Atom
            ==========     =====     ==========

 O                                    1
                                  ---------------------------------------------------------------------------
    Core    0  0  0  0     7.360      1
            0  0  0  1     1.720      2
            0  0  0  1     2.880      3
            0  0  0  1     7.580      4
            1  0  0  0     1.120      5
            0  1  0  0     1.120      6
            0  0  1  0     1.120      7
            1  0  0  0     2.080      8
            0  1  0  0     2.080      9
            0  0  1  0     2.080     10
            1  0  0  0     4.080     11
            0  1  0  0     4.080     12
            0  0  1  0     4.080     13
            2  0  0  0     2.000     14
            1  1  0  0     2.000     15
            1  0  1  0     2.000     16
            0  2  0  0     2.000     17
            0  1  1  0     2.000     18
            0  0  2  0     2.000     19
1
 ***************************************************************************************************



                                              ***********************
                                              *  T E C H N I C A L  *
                                              ***********************
  



 =============================================================
 P A R A L L E L I Z A T I O N  and  V E C T O R I Z A T I O N
 =============================================================
  
 Nr of parallel processes:                                1
 Maximum vector length in NumInt loops:                 128

 IO buffersize (Mb):                                     64.000000



 =====================
 S C F   U P D A T E S
 =====================
  
 Max. nr. of cycles:                               300
 Convergence criterion:                              0.0000000100
   secondary criterion:                              0.0000000100

 Mix parameter (when DIIS does not apply):           0.2000000000
 Special mix parameter for the first cycle:          1.0000000000
 Mixed ADIIS+DIIS will be used
    Max number of expansion vectors:                10
    Pure ADIIS when Max([F,P]) is above              0.1000000000
    Pure DIIS when Max([F,P]) is below               0.0010000000
 Automatic ElectronSmearing (in case of problematic SCF convergence) disabled



 =================
 P R E C I S I O N  ***  (General: NumInt, NeglectFunctionTails, ...)  ***
 =================
  

 NumInt:           Target precision:                12.0000000000
 -------           Initial precision:               10.0000000000
                   Min. precision (optimization):   10.0000000000

 Neglect Functions:          Basis functions:        0.1000000000E-13
 ------------------          Fit functions:          0.1000000000E-13



 ===========================
 L I N E A R   S C A L I N G
 ===========================
  

 Cut-off radii density fit:                        0.1000000000E-97
 Overlap cut-off criterion AO matrix elements:     0.1000000000E-97
 Cut-offs for Coulomb potential and fitted density:0.1000000000E-97
 Cut-off criterion for Coulomb multipole terms:    0.1000000000E-97
 Progressive Convergence parameter:                 0.000000000    
1
 ***************************************************************************************************



                                            ***************************
                                            *  C O M P U T A T I O N  *
                                            ***************************
  

 Number of elements of the density matrix on this node (used, total):       190       190



 ===========================================
 Numerical Integration : Fuzzy Cells (Becke)
 ===========================================
  
 Becke grid quality: VERYGOOD       
  
 Lebedev angular grid order:             min:  13 max:  41
 Nr. of radial points:                   min:  68 max:  68

 Total nr. of points:         68
 Nr. of blocks:                1
 Block length:                68
 Nr. of dummy points:          0


 Test of Precision of the Numerical Integration Grid
 ===================================================

 Integral of the Total Core Density:                   1.99999999865610
 Relative Error:                                      -6.720E-10



 ========================
 Density Fitting (zlmFit)
 ========================
  
 ZlmFit Fit Quality: VERYGOOD       
  
 Max L-expansion:                        min:   0 max:   0
 Nr. of radial interpolation points:     min: 140 max: 140



 =====
 S C F  ***  ScaSCF  ***
 =====
  

 CYCLE    1
 SCF Error: norm([F,P])=      0.000000000000, max([F,P])=      0.000000000000
 orbitals (Q,E):
 ---------------
 S :1...3            ( 2.00    -5.3654)  ( 0.00    -2.2073)  ( 0.00    23.6692)
 P :1...3            ( 4.00    -5.0045)  ( 0.00    -2.0150)  ( 0.00    -0.3846)
 D :1...1            ( 0.00    -2.0410)

 CYCLE    2
 SCF Error: norm([F,P])=      4.562993374874, max([F,P])=      2.528971113813
 orbitals (Q,E):
 ---------------
 S :1...2            ( 2.00    -0.1548)  ( 0.00     1.6948)
 P :1...2            ( 4.00     0.1773)  ( 0.00     0.9552)
 D :1...1            ( 0.00     1.4649)

 CYCLE    3
  SDIIS (wt  0.000):  0.3378  0.6622
 A-DIIS (wt  1.000):  0.4814  0.5186
  DIIS coefficients:  0.4814  0.5186
 SCF Error: norm([F,P])=      2.723155250500, max([F,P])=      1.798667049295
 orbitals (Q,E):
 ---------------
 S :1...2            ( 2.00    -1.1093)  ( 0.00     0.7549)
 P :1...2            ( 4.00    -0.5518)  ( 0.00     0.2590)
 D :1...1            ( 0.00     0.8910)

 CYCLE    4
  SDIIS (wt  0.000):  0.0919  0.9081
 A-DIIS (wt  1.000):  0.0000  1.0000
  DIIS coefficients:  0.0000  1.0000
 SCF Error: norm([F,P])=      0.289027138405, max([F,P])=      0.130648623511
 orbitals (Q,E):
 ---------------
 S :1...2            ( 2.00    -0.7707)  ( 0.00     0.9912)
 P :1...2            ( 4.00    -0.2284)  ( 0.00     0.4046)
 D :1...1            ( 0.00     1.1288)

 CYCLE    5
  SDIIS (wt  0.000):  0.0260  0.6740  0.3001
 A-DIIS (wt  1.000):  0.0000  0.5764  0.4236
  DIIS coefficients:  0.0000  0.5764  0.4236
 SCF Error: norm([F,P])=      0.416615089426, max([F,P])=      0.232643669786
 orbitals (Q,E):
 ---------------
 S :1...2            ( 2.00    -0.8764)  ( 0.00     0.9107)
 P :1...2            ( 4.00    -0.3280)  ( 0.00     0.3557)
 D :1...1            ( 0.00     1.0703)

 CYCLE    6
  SDIIS (wt  0.942):  0.0005  0.0237 -0.0203  0.9960
 A-DIIS (wt  0.058):  0.0000  0.0000  0.0000  1.0000
  DIIS coefficients:  0.0005  0.0224 -0.0191  0.9962
 SCF Error: norm([F,P])=      0.013723272809, max([F,P])=      0.006719036732
 orbitals (Q,E):
 ---------------
 S :1...2            ( 2.00    -0.8830)  ( 0.00     0.9058)
 P :1...2            ( 4.00    -0.3343)  ( 0.00     0.3521)
 D :1...1            ( 0.00     1.0657)

 CYCLE    7
  SDIIS (wt  1.000): -0.0000  0.0016  0.0023  0.0424  0.9537
  DIIS coefficients: -0.0000  0.0016  0.0023  0.0424  0.9537
 SCF Error: norm([F,P])=      0.001103645928, max([F,P])=      0.000634039171
 orbitals (Q,E):
 ---------------
 S :1...2            ( 2.00    -0.8827)  ( 0.00     0.9060)
 P :1...2            ( 4.00    -0.3340)  ( 0.00     0.3523)
 D :1...1            ( 0.00     1.0659)

 CYCLE    8
  SDIIS (wt  1.000): -0.0000 -0.0001  0.0000 -0.0032  0.0268  0.9765
  DIIS coefficients: -0.0000 -0.0001  0.0000 -0.0032  0.0268  0.9765
 SCF Error: norm([F,P])=      0.000035919804, max([F,P])=      0.000020263969
 orbitals (Q,E):
 ---------------
 S :1...2            ( 2.00    -0.8827)  ( 0.00     0.9060)
 P :1...2            ( 4.00    -0.3340)  ( 0.00     0.3522)
 D :1...1            ( 0.00     1.0659)

 CYCLE    9
  SDIIS (wt  1.000): -0.0000  0.0008  0.0188  0.9804
  DIIS coefficients: -0.0000  0.0008  0.0188  0.9804
 SCF Error: norm([F,P])=      0.000000326379, max([F,P])=      0.000000183921
 orbitals (Q,E):
 ---------------
 S :1...2            ( 2.00    -0.8827)  ( 0.00     0.9060)
 P :1...2            ( 4.00    -0.3340)  ( 0.00     0.3522)
 D :1...1            ( 0.00     1.0659)

 CYCLE   10
  SDIIS (wt  1.000):  0.0000  0.0003  0.9996
  DIIS coefficients:  0.0000  0.0003  0.9996
 SCF Error: norm([F,P])=      0.000000000559, max([F,P])=      0.000000000306
 orbitals (Q,E):
 ---------------
 S :1...2            ( 2.00    -0.8827)  ( 0.00     0.9060)
 P :1...2            ( 4.00    -0.3340)  ( 0.00     0.3522)
 D :1...1            ( 0.00     1.0659)

 SCF CONVERGED

 CYCLE   11
1
 ***************************************************************************************************



                                                *******************
                                                *  R E S U L T S  *
                                                *******************
  
 *** Setting up for NEW gradients in Focky
 *** Using FIT density in Focky

 Scaled ZORA Orbital Energies, per Irrep and Spin:
 =================================================
                        Occup              E (au)              E (eV)       Diff (eV) with prev. cycle
                        -----      --------------------        ------       --------------------------
 S
               1        2.000     -0.88272313143210E+00       -24.020              -9.23E-11
               2        0.000      0.90601345014671E+00        24.654
               3        0.000      0.29578810816936E+02       804.880
 P
               1        4.000     -0.33400585272067E+00        -9.089              -8.90E-11
               2        0.000      0.35224911365995E+00         9.585
               3        0.000      0.38342927625315E+01       104.336
 D
               1        0.000      0.10658965783141E+01        29.005


 Partially Occupied:
               1 P                -0.33400585272067E+00
  
 HOMO :        1 S                -0.88272313143210E+00
 LUMO :        2 P                 0.35224911365995E+00
  


 Orbital Energies, all Irreps
 ========================================

 Irrep        no.  (spin)   Occup              E (au)                E (eV)
 ---------------------------------------------------------------------------
 S             1             2.00       -0.88272313143210E+00       -24.0201
 P             1             4.00       -0.33400585272067E+00        -9.0888
 P             2             0.00        0.35224911365995E+00         9.5852
 S             2             0.00        0.90601345014671E+00        24.6539
 D             1             0.00        0.10658965783141E+01        29.0045
 P             3             0.00        0.38342927625315E+01       104.3364
 S             3             0.00        0.29578810816936E+02       804.8804


 Scaled ZORA Orbital Energies of the Core Orbitals:
 ==================================================

 (Note that the atoms are grouped by atomtype, see the labels, and may hence NOT be in input order)

 AtomType  Orbital  Atom                   E (au)                        E (eV)
 --------  -------  ----           --------------------        ----------------
 O           1S        1          -0.18925919758630E+02                -515.000



 =======================================
 M U L L I K E N   P O P U L A T I O N S
 =======================================
  
 The survey below gives for each atom:
 a) the total charge (Z minus electrons)
 b) the net spin polarization (nr of electrons spin-A minus spin-B)
 c) for each spin the atomic electron valence density (integrated) per L-value.

 Atom              Charge    Spin density          S         P         D         F
 ----              ------    ------------       ------    ------    ------    ------
 1 O               0.0000                       2.0000    4.0000    0.0000    0.0000

 Populations of individual BAS functions
 ----------------------------------------
 1 O            0.0005  0.9226  1.0966 -0.0196  0.3346  0.3346  0.3346  0.7512  0.7512  0.7512
                0.2476  0.2476  0.2476  0.0000  0.0000  0.0000  0.0000  0.0000  0.0000

 Gross Charges per Atom (Z minus electrons)
 ==========================================
             0.0000
 Net Total:  0.00000000



 =======================================================================
 Electrostatic potential at the Nuclei due to electrons and other nuclei
 =======================================================================
  
         Atom                  Potential
         ----                  ---------
[...]
    60  FOCKY   ................      6.40   10.74             0.08   13.60             6.52   10.78
    60  FOCKTR  ................      0.03    0.05             0.00    0.03             0.03    0.05
    60  SDIIS   ................      0.01    0.01             0.00    0.09             0.01    0.01
     3  TOTEN   ................     17.92    1.50             0.09    0.75            18.07    1.49
     3  POPAN   ................      0.03    0.00             0.00    0.02             0.04    0.00
     3  DEBYE   ................      0.13    0.01             0.01    0.06             0.14    0.01
     3  INPUTE  ................      0.00    0.00             0.00    0.00             0.00    0.00
     3  SYMORE  ................      0.00    0.00             0.00    0.00             0.00    0.00
     5  ELNRGY  ................     28.40    3.97             0.02    0.26            28.51    3.93
     2  ENGRAD  ................      0.00    0.00             0.00    0.00             0.00    0.00
     1  COREPS  ................      4.18    0.12             0.03    0.10             4.24    0.12
     1  METS    ................      0.00    0.00             0.00    0.01             0.01    0.00
     1  CETS    ................      0.03    0.00             0.00    0.00             0.03    0.00
     1  POPUL   ................      0.05    0.00             0.01    0.02             0.07    0.00
     1  ENHESS  ................   2935.21   82.13            30.12   84.28          2979.09   82.15
     1  EXIT PROCEDURE .........      0.03    0.00             0.07    0.20             0.11    0.00


 Currently Open Files (EXIT00)
 ====================

 Unit    Access Format  Status   Type       Ident (file)
 -------------------------------------------------------
   3      SEQ    FORM   TRANSP  NORMAL      LOGFILE
                                          ( logfile )


 Buffered I/O statistics
 =======================
 Memory available:                     67108864
 Number of records fitting in memory:     16131
 Input :  11.2% of                     12422805  *4k bytes
 Output:   2.8% of                       526503  *4k bytes
 Records from serial files evicted:     2743990
                    others evicted:    -2433448
 Hash table lookups:   34713237 with    4340958 conflicts ( 12.51%)

 ***************************************************************************************************
 (LOGFILE)
 <May30-2018> <15:57:35>  DIRAC 2017  RunTime: May30-2018 15:57:35  Nodes: 1  Procs: 1
 <May30-2018> <15:57:36>  NORMAL TERMINATION
 <May30-2018> <15:57:36>  END
 <May30-2018> <15:57:36>  ADF 2017  RunTime: May30-2018 15:57:36  Nodes: 1  Procs: 1
 <May30-2018> <15:57:36>  Uranium (TZP, 4f frozen)
 <May30-2018> <15:57:36>  RunType   : CREATE
 <May30-2018> <15:57:36>  Net Charge: 0 (Nuclei minus Electrons)
 <May30-2018> <15:57:36>  Symmetry  : ATOM
  Coordinates
    Atom         X           Y           Z   (Angstrom)
    1.U         0.000000    0.000000    0.000000
 <May30-2018> <15:57:36>  >>>> CORORT
 <May30-2018> <15:57:36>  >>>> CLSMAT
 <May30-2018> <15:57:36>  >>>> ORTHON
 <May30-2018> <15:57:36>  >>>> GENPT
 <May30-2018> <15:57:36>  Block Length=  90
 <May30-2018> <15:57:36>  >>>> PTBAS
 <May30-2018> <15:57:36>  >>>> CYCLE
 <May30-2018> <15:57:37>              |Error|         MaxErr       Wt(A-DIIS)
 <May30-2018> <15:57:37>      1      0.00000000      0.00000000
 <May30-2018> <15:57:37>      2     26.65437883      7.88601552    100.0
 <May30-2018> <15:57:37>      3     16.83824603      3.57978893    100.0
 <May30-2018> <15:57:37>      4      8.33419328      1.80186580    100.0
 <May30-2018> <15:57:37>      5      3.50938413      0.67847283    100.0
 <May30-2018> <15:57:37>      6      1.77548268      0.36550064    100.0
 <May30-2018> <15:57:37>      7      0.65809146      0.11750962    100.0
 <May30-2018> <15:57:37>      8      0.70141997      0.11749155    100.0
 <May30-2018> <15:57:38>      9      0.01847953      0.00386292      2.9
 <May30-2018> <15:57:38>     10      0.00110362      0.00018398      0.0
 <May30-2018> <15:57:38>     11      0.00008452      0.00002157      0.0
 <May30-2018> <15:57:38>     12      0.00000253      0.00000053      0.0
 <May30-2018> <15:57:38>     13      0.00000008      0.00000002      0.0
 <May30-2018> <15:57:38>     14      0.00000000      0.00000000      0.0
 <May30-2018> <15:57:38>  SCF converged
 <May30-2018> <15:57:38>     15      0.00000000      0.00000000      0.0
 <May30-2018> <15:57:38>  >>>> POPAN
 <May30-2018> <15:57:38>  >>>> DEBYE
 <May30-2018> <15:57:38>  NORMAL TERMINATION
 <May30-2018> <15:57:38>  END
 <May30-2018> <15:57:38>  DIRAC 2017  RunTime: May30-2018 15:57:38  Nodes: 1  Procs: 1
 <May30-2018> <15:57:38>  NORMAL TERMINATION
 <May30-2018> <15:57:38>  END
 <May30-2018> <15:57:39>  ADF 2017  RunTime: May30-2018 15:57:39  Nodes: 1  Procs: 1
 <May30-2018> <15:57:39>  Oxygen (TZP, 1s frozen)
 <May30-2018> <15:57:39>  RunType   : CREATE
 <May30-2018> <15:57:39>  Net Charge: 0 (Nuclei minus Electrons)
 <May30-2018> <15:57:39>  Symmetry  : ATOM
  Coordinates
    Atom         X           Y           Z   (Angstrom)
    1.O         0.000000    0.000000    0.000000
 <May30-2018> <15:57:39>  >>>> CORORT
 <May30-2018> <15:57:39>  >>>> CLSMAT
 <May30-2018> <15:57:39>  >>>> ORTHON
 <May30-2018> <15:57:39>  >>>> GENPT
 <May30-2018> <15:57:39>  Block Length=  68
 <May30-2018> <15:57:39>  >>>> PTBAS
 <May30-2018> <15:57:39>  >>>> CYCLE
 <May30-2018> <15:57:39>              |Error|         MaxErr       Wt(A-DIIS)
 <May30-2018> <15:57:39>      1      0.00000000      0.00000000
 <May30-2018> <15:57:39>      2      4.56299337      2.52897111
 <May30-2018> <15:57:39>      3      2.72315525      1.79866705    100.0
 <May30-2018> <15:57:39>      4      0.28902714      0.13064862    100.0
 <May30-2018> <15:57:39>      5      0.41661509      0.23264367    100.0
 <May30-2018> <15:57:39>      6      0.01372327      0.00671904      5.8
 <May30-2018> <15:57:39>      7      0.00110365      0.00063404      0.0
 <May30-2018> <15:57:39>      8      0.00003592      0.00002026      0.0
 <May30-2018> <15:57:39>      9      0.00000033      0.00000018      0.0
 <May30-2018> <15:57:39>     10      0.00000000      0.00000000      0.0
 <May30-2018> <15:57:39>  SCF converged
 <May30-2018> <15:57:39>     11      0.00000000      0.00000000      0.0
 <May30-2018> <15:57:39>  >>>> POPAN
 <May30-2018> <15:57:39>  >>>> DEBYE
 <May30-2018> <15:57:39>  NORMAL TERMINATION
 <May30-2018> <15:57:39>  END
 <May30-2018> <15:57:40>  ADF 2017  RunTime: May30-2018 15:57:40  Nodes: 1  Procs: 8
 <May30-2018> <15:57:40>  *** (NO TITLE) ***
 <May30-2018> <15:57:40>  RunType   : GEOMETRY OPTIMIZATION
 <May30-2018> <15:57:40>  Net Charge: -8 (Nuclei minus Electrons)
 <May30-2018> <15:57:40>  Symmetry  : C(4V)
 <May30-2018> <15:57:40>  >>>> FRAGM
  Coordinates in Geometry Cycle 1
    Atom         X           Y           Z   (Angstrom)
    1.U         0.000000    3.049821    0.028575
    2.O         0.000000    3.890313    1.721990
    3.O         0.000000    2.234881   -1.641686
    4.U        -3.049821    0.000000    0.028575
    5.O        -3.890313    0.000000    1.721990
    6.O        -2.234881    0.000000   -1.641686
    7.U         3.049821    0.000000    0.028575
    8.O         3.890313    0.000000    1.721990
    9.O         2.234881    0.000000   -1.641686
   10.U         0.000000   -3.049821    0.028575
   11.O         0.000000   -3.890313    1.721990
   12.O         0.000000   -2.234881   -1.641686
   13.O         0.739871    4.983632   -0.911998
   14.O        -0.739871    4.983632   -0.911998
   15.O        -1.426249    1.426249    0.975361
   16.O        -2.372075    2.372075    0.347043
   17.O         1.426249    1.426249    0.975361
   18.O         2.372075    2.372075    0.347043
   19.O        -4.983632   -0.739871   -0.911998
   20.O        -4.983632    0.739871   -0.911998
   21.O        -2.372075   -2.372075    0.347043
   22.O        -1.426249   -1.426249    0.975361
   23.O         2.372075   -2.372075    0.347043
   24.O         1.426249   -1.426249    0.975361
   25.O         4.983632   -0.739871   -0.911998
   26.O         4.983632    0.739871   -0.911998
   27.O        -0.739871   -4.983632   -0.911998
   28.O         0.739871   -4.983632   -0.911998
 <May30-2018> <15:57:40>  >>>> CORORT
 <May30-2018> <15:57:41>  >>>> CLSMAT
 <May30-2018> <15:57:41>  >>>> ORTHON
 <May30-2018> <15:57:41>  >>>> GENPT
 <May30-2018> <15:57:41>  Block Length= 128
 <May30-2018> <15:57:41>  >>>> PTBAS
 <May30-2018> <15:57:57>  combining surface points...
 <May30-2018> <15:57:57>  combining surface points...
 <May30-2018> <15:57:57>  combining surface points...
 <May30-2018> <15:57:57>  >>>> CYCLE
 <May30-2018> <15:58:03>              |Error|         MaxErr       Wt(A-DIIS)
 <May30-2018> <15:58:03>      1     33.03989375      7.27532026
 <May30-2018> <15:58:09>      2      5.11110990      0.36570112    100.0
 <May30-2018> <15:58:16>      3     25.04930312      2.12233138    100.0
 <May30-2018> <15:58:22>      4      4.36576423      0.46771216    100.0
 <May30-2018> <15:58:29>      5      2.50250312      0.20171296    100.0
 <May30-2018> <15:58:35>      6      1.84588179      0.16033138    100.0
 <May30-2018> <15:58:42>      7      3.19068736      0.40942507    100.0
 <May30-2018> <15:58:49>      8      0.89936590      0.07743327     77.2
 <May30-2018> <15:58:55>      9      1.02666914      0.08289322    100.0
 <May30-2018> <15:59:02>     10      1.57278515      0.15653293    100.0
 <May30-2018> <15:59:08>     11      0.55553140      0.05317804     52.7
 <May30-2018> <15:59:15>     12      0.51989533      0.05108812     50.6
 <May30-2018> <15:59:21>     13      0.13663006      0.01224264     11.4
 <May30-2018> <15:59:28>     14      0.05651177      0.00520849      4.3
 <May30-2018> <15:59:34>     15      0.00428224      0.00048410      0.0
 <May30-2018> <15:59:40>     16      0.00110460      0.00010384      0.0
 <May30-2018> <15:59:47>     17      0.00050044      0.00003935      0.0
 <May30-2018> <15:59:53>     18      0.00011722      0.00000855      0.0
 <May30-2018> <15:59:59>     19      0.00001672      0.00000146      0.0
 <May30-2018> <16:00:06>     20      0.00000180      0.00000014      0.0
 <May30-2018> <16:00:06>  SCF converged
 <May30-2018> <16:00:12>     21      0.00000096      0.00000007      0.0
 <May30-2018> <16:00:13>  >>>> TOTEN
 <May30-2018> <16:00:24>  >>>> POPAN
 <May30-2018> <16:00:24>  >>>> DEBYE
 <May30-2018> <16:00:24>  >>>> ENGRAD
 <May30-2018> <16:01:38>  current energy                               -8.70590054 Hartree
 <May30-2018> <16:01:38>  energy change                      -8.70590054     0.00100000    F
 <May30-2018> <16:01:38>  constrained gradient max            0.00053901     0.00100000    T
 <May30-2018> <16:01:38>  constrained gradient rms            0.00021769     0.00066667    T
 <May30-2018> <16:01:38>  gradient max                        0.00053901
 <May30-2018> <16:01:38>  gradient rms                        0.00021769
 <May30-2018> <16:01:38>  cart. step max                      0.00159477     0.01000000    T
 <May30-2018> <16:01:38>  cart. step rms                      0.00051619     0.00666667    T
  Coordinates in Geometry Cycle 2
    Atom         X           Y           Z   (Angstrom)
    1.U         0.000000    3.049802    0.028556
    2.O         0.000000    3.888718    1.722635
    3.O         0.000000    2.233687   -1.640850
    4.U        -3.049802    0.000000    0.028556
    5.O        -3.888718    0.000000    1.722635
    6.O        -2.233687    0.000000   -1.640850
    7.U         3.049802    0.000000    0.028556
    8.O         3.888718    0.000000    1.722635
    9.O         2.233687    0.000000   -1.640850
   10.U         0.000000   -3.049802    0.028556
   11.O         0.000000   -3.888718    1.722635
   12.O         0.000000   -2.233687   -1.640850
   13.O         0.739938    4.983420   -0.912227
   14.O        -0.739938    4.983420   -0.912227
   15.O        -1.426238    1.426238    0.975110
   16.O        -2.372090    2.372090    0.346550
   17.O         1.426238    1.426238    0.975110
   18.O         2.372090    2.372090    0.346550
   19.O        -4.983420   -0.739938   -0.912227
   20.O        -4.983420    0.739938   -0.912227
   21.O        -2.372090   -2.372090    0.346550
   22.O        -1.426238   -1.426238    0.975110
   23.O         2.372090   -2.372090    0.346550
   24.O         1.426238   -1.426238    0.975110
   25.O         4.983420   -0.739938   -0.912227
   26.O         4.983420    0.739938   -0.912227
   27.O        -0.739938   -4.983420   -0.912227
   28.O         0.739938   -4.983420   -0.912227
 <May30-2018> <16:01:38>  >>>> CORORT
 <May30-2018> <16:01:38>  >>>> CLSMAT
 <May30-2018> <16:01:39>  >>>> ORTHON
 <May30-2018> <16:01:39>  >>>> GENPT
 <May30-2018> <16:01:39>  Block Length= 128
 <May30-2018> <16:01:39>  >>>> PTBAS
 <May30-2018> <16:01:56>  combining surface points...
 <May30-2018> <16:01:56>  combining surface points...
 <May30-2018> <16:01:56>  combining surface points...
 <May30-2018> <16:01:56>  >>>> CYCLE
 <May30-2018> <16:02:02>              |Error|         MaxErr       Wt(A-DIIS)
 <May30-2018> <16:02:02>      1      0.28510679      0.02159091
 <May30-2018> <16:02:10>      2      3.13112212      0.39072419    100.0
 <May30-2018> <16:02:18>      3      1.61045725      0.15807378    100.0
 <May30-2018> <16:02:25>      4      0.59660083      0.04819598     47.7
 <May30-2018> <16:02:32>      5      3.64816939      0.44074489    100.0
 <May30-2018> <16:02:38>      6      1.24550173      0.13513778    100.0
 <May30-2018> <16:02:45>      7      2.31132344      0.24536800    100.0
 <May30-2018> <16:02:51>      8      0.53524678      0.04702515     46.5
 <May30-2018> <16:02:58>      9      0.46618685      0.03890630     38.3
 <May30-2018> <16:03:04>     10      0.31327961      0.02855687     27.8
 <May30-2018> <16:03:11>     11      0.10771162      0.01151000     10.6
 <May30-2018> <16:03:17>     12      0.02092448      0.00220718      1.2
 <May30-2018> <16:03:24>     13      0.00359452      0.00041068      0.0
 <May30-2018> <16:03:30>     14      0.00374672      0.00039464      0.0
 <May30-2018> <16:03:36>     15      0.00069513      0.00008494      0.0
 <May30-2018> <16:03:43>     16      0.00021866      0.00002614      0.0
 <May30-2018> <16:03:49>     17      0.00008096      0.00000770      0.0
 <May30-2018> <16:03:55>     18      0.00000811      0.00000061      0.0
 <May30-2018> <16:03:56>  SCF converged
 <May30-2018> <16:04:01>     19      0.00000205      0.00000019      0.0
 <May30-2018> <16:04:02>  >>>> TOTEN
 <May30-2018> <16:04:13>  >>>> POPAN
 <May30-2018> <16:04:13>  >>>> DEBYE
 <May30-2018> <16:04:14>  >>>> ENGRAD
 <May30-2018> <16:05:22>  current energy                               -8.70589361 Hartree
 <May30-2018> <16:05:22>  energy change                       0.00000693     0.00100000    T
 <May30-2018> <16:05:22>  constrained gradient max            0.00023405     0.00100000    T
 <May30-2018> <16:05:22>  constrained gradient rms            0.00010939     0.00066667    T
 <May30-2018> <16:05:22>  gradient max                        0.00023405
 <May30-2018> <16:05:22>  gradient rms                        0.00010939
 <May30-2018> <16:05:22>  cart. step max                      0.00148569     0.01000000    T
 <May30-2018> <16:05:22>  cart. step rms                      0.00049177     0.00666667    T
 <May30-2018> <16:05:22>  GEOMETRY CONVERGED
 <May30-2018> <16:05:22>  Calculating Energy Terms for Final Geometry
  Coordinates in Geometry Cycle 2
    Atom         X           Y           Z   (Angstrom)
    1.U         0.000000    3.049802    0.028556
    2.O         0.000000    3.888718    1.722635
    3.O         0.000000    2.233687   -1.640850
    4.U        -3.049802    0.000000    0.028556
    5.O        -3.888718    0.000000    1.722635
    6.O        -2.233687    0.000000   -1.640850
    7.U         3.049802    0.000000    0.028556
    8.O         3.888718    0.000000    1.722635
    9.O         2.233687    0.000000   -1.640850
   10.U         0.000000   -3.049802    0.028556
   11.O         0.000000   -3.888718    1.722635
   12.O         0.000000   -2.233687   -1.640850
   13.O         0.739938    4.983420   -0.912227
   14.O        -0.739938    4.983420   -0.912227
   15.O        -1.426238    1.426238    0.975110
   16.O        -2.372090    2.372090    0.346550
   17.O         1.426238    1.426238    0.975110
   18.O         2.372090    2.372090    0.346550
   19.O        -4.983420   -0.739938   -0.912227
   20.O        -4.983420    0.739938   -0.912227
   21.O        -2.372090   -2.372090    0.346550
   22.O        -1.426238   -1.426238    0.975110
   23.O         2.372090   -2.372090    0.346550
   24.O         1.426238   -1.426238    0.975110
   25.O         4.983420   -0.739938   -0.912227
   26.O         4.983420    0.739938   -0.912227
   27.O        -0.739938   -4.983420   -0.912227
   28.O         0.739938   -4.983420   -0.912227
 <May30-2018> <16:05:22>  >>>> CORORT
 <May30-2018> <16:05:23>  >>>> CLSMAT
 <May30-2018> <16:05:23>  >>>> ORTHON
 <May30-2018> <16:05:23>  >>>> GENPT
 <May30-2018> <16:05:23>  Block Length= 128
 <May30-2018> <16:05:23>  >>>> PTBAS
 <May30-2018> <16:05:40>  combining surface points...
 <May30-2018> <16:05:40>  combining surface points...
 <May30-2018> <16:05:40>  combining surface points...
 <May30-2018> <16:05:40>  >>>> CYCLE
 <May30-2018> <16:05:46>              |Error|         MaxErr       Wt(A-DIIS)
 <May30-2018> <16:05:46>      1      0.28196701      0.02331633
 <May30-2018> <16:05:54>      2      3.12545225      0.49531544    100.0
 <May30-2018> <16:06:02>      3      1.61036850      0.15512400    100.0
 <May30-2018> <16:06:10>      4      0.59510234      0.05651027     56.1
 <May30-2018> <16:06:16>      5      3.80509173      0.49970700    100.0
 <May30-2018> <16:06:23>      6      1.23143424      0.13432954    100.0
 <May30-2018> <16:06:29>      7      2.50689191      0.29937044    100.0
 <May30-2018> <16:06:36>      8      0.48445169      0.05089795     50.4
 <May30-2018> <16:06:42>      9      0.55037427      0.05481203    100.0
 <May30-2018> <16:06:49>     10      0.76624643      0.08260724    100.0
 <May30-2018> <16:06:55>     11      0.12159050      0.01256005     11.7
 <May30-2018> <16:07:02>     12      0.07081767      0.00767865      6.7
 <May30-2018> <16:07:08>     13      0.00715072      0.00111945      0.1
 <May30-2018> <16:07:15>     14      0.00560482      0.00082509      0.0
 <May30-2018> <16:07:21>     15      0.00162350      0.00023479      0.0
 <May30-2018> <16:07:27>     16      0.00023556      0.00002886      0.0
 <May30-2018> <16:07:34>     17      0.00012985      0.00001387      0.0
 <May30-2018> <16:07:40>     18      0.00003850      0.00000427      0.0
 <May30-2018> <16:07:46>     19      0.00000365      0.00000032      0.0
 <May30-2018> <16:07:47>  SCF converged
 <May30-2018> <16:07:52>     20      0.00000109      0.00000012      0.0
 <May30-2018> <16:07:57>  >>>> TOTEN
 <May30-2018> <16:08:27>  >>>> POPAN
 <May30-2018> <16:08:27>  >>>> DEBYE
 <May30-2018> <16:08:27>  >>>> AMETS
 <May30-2018> <16:08:27>  >>>> POPUL
 <May30-2018> <16:08:27>   Bond Energy          -8.70589361 a.u.
 <May30-2018> <16:08:27>   Bond Energy        -236.89941875 eV
 <May30-2018> <16:08:27>   Bond Energy       -5463.03       kcal/mol
 <May30-2018> <16:08:27>  >>>> ENHESS
 <May30-2018> <16:09:08>  === NUCLEUS:     1
 <May30-2018> <16:18:06>  === NUCLEUS:     5
 <May30-2018> <16:25:21>  === NUCLEUS:     6
 <May30-2018> <16:32:38>  === NUCLEUS:    13
 <May30-2018> <16:40:03>  === NUCLEUS:    15
 <May30-2018> <16:47:29>  === NUCLEUS:    16
 <May30-2018> <16:54:39>  >>>> CALC_HESS_PMAT
 <May30-2018> <16:57:41>  >>>> CALC_HESS_WMAT
 <May30-2018> <16:58:06>  NORMAL TERMINATION
 <May30-2018> <16:58:06>  END
