
 *******************************************************************************
 *                                                                             *
 *  -------------------------------------                                      *
 *   Amsterdam Density Functional  (ADF)         2017                          *
 *  -------------------------------------                                      *
 *                                               r61155 2017-09-11             *
 *                                                                             *
 *                                                                             *
 *                            =====================                            *
 *                            |                   |                            *
 *                            |     D I R A C     |                            *
 *                            |                   |                            *
 *                            =====================                            *
 *                                                                             *
 *                                                                             *
 *   Online information and documentation:  https://www.scm.com/support/       *
 *   E-mail:  support@scm.com   info@scm.com                                   *
 *                                                                             *
 *   Scientific publications using ADF results must be properly referenced     *
 *   See the User Manuals (or the web site) for recommended citations          *
 *   The terms and conditions of the End User License Agreement apply to       *
 *   the use of ADF, https://www.scm.com/license-terms/                        *
 *                                                                             *
 ***********************  x86_64_linux_intel / openmpi  ************************
 
 Licensed to: Prof. Pere Miro / University of South Dakota, Department of Chemistry / Vermillion / SD / USA
 SCM User ID: u19501
  
 DIRAC 2017  RunTime: May30-2018 15:57:16  Nodes: 1  Procs: 1

 Temporary files are created in /tmp/15011/kid_0.gln7kB

1
 HYDROGEN ATOM RELATIVISTIC, Point Nuc, A and c from libtc   
 N J RN H ZN XION ANUC CLIGHT
 5000    1100.00000000197.36710137  1.00000000  0.00000000    1.007825  0.1370360E+03
  PH   PHI     EPS        DEL        DELRVR
  0.30  0.30     2500.00  0.00001000  0.00001000
 IDIRC  NC1  NDEBU NPRIN  IPUN IRCOR IWCOR
   1   300     0     0     0     0     0
   XALPHA      XLATTER      RNUC
  0.70000000  0.00000000  0.00000000 Point Charge
   XN   XL   XJ      XE          XZ      XDELL
  1.0  0.0  0.5      -1.000       1.000     0.00000
 ICORP=  0  NPCL=  0  DEMP=0.00  PEPS=0.000000
 R(1)=  0.1000000E-08 D=  0.1005080E+01 RNUC=  0.0000000E+00
 converged at cycle   32  DENSITY AVERAGING    0.2400
  MAXIMUM ERROR IN R.V(R) IS   0.79874357E-05
 Q,EY,EV,EZ,ESUM,ETOT,RHO  0.100000E+01 -0.266614E+00 -0.619969E+00 -0.910779E+00 -0.203940E+00 -0.415998E+00  0.337036E-17


 DIRAC CALCULATION
1                    HYDROGEN ATOM RELATIVISTIC, Point Nuc, A and c from libtc


 EXCHANGE COEFFICIENT=  0.7000000           TAIL CORRECTION=  0.           NUCLEAR RADIUS=  0.000E+00
0                       ORBITAL    N    L    J     ELECTRONS     EIGENVALUE                DELTA OF EIGENV.

                          1S1/2  1.0  0.0  0.5     1.000       -0.2039397E+00                 0.2720093E-06


                                        NUCLEAR CHARGE=    1.000000
                            INTEGRAL OF CHARGE DENSITY=    1.000000
                           SUM OF THE ORBITAL ENERGIES=     -0.2039
                                          TOTAL ENERGY=     -0.4160
                                        KINETIC ENERGY=      0.4160
                             NUCLEAR ATTRACTION ENERGY=     -0.9108
                             ELECTRON REPULSION ENERGY=      0.2787
                                       EXCHANGE ENERGY=     -0.2000

 *******************************************************************************

                             D I R A C   E X I T
 NORMAL TERMINATION



 =================
 Timing Statistics
 =================
  
 Total Used :                     CPU=        0.12      System=        0.03     Elapsed=        0.16

 Calls  Section                     ( Mean, Percentage )
 ---------------------------------------------------------------------------------------------------
     2  ><      ................      0.00    0.00             0.00    0.04             0.00    0.01
     1  EXIT PROCEDURE .........      0.12  100.00             0.03   99.96             0.16   99.99


 Currently Open Files (EXIT00)
 ====================

 Unit    Access Format  Status   Type       Ident (file)
 -------------------------------------------------------
   3      SEQ    FORM   TRANSP  NORMAL      LOGFILE
                                          ( logfile )


 Buffered I/O statistics
 =======================
 Memory available:                     67108864
 Number of records fitting in memory:     16131
 Input : 100.0% of                            0  *4k bytes
 Output: 100.0% of                            0  *4k bytes
 Records from serial files evicted:           0
                    others evicted:           0
 Hash table lookups:          0 with          0 conflicts (100.00%)

Create H   file=TZP-H
XC
GGA PBE
End
relativistic ZORA
Corepotentials t12.rel
End Input

 *******************************************************************************
 *                                                                             *
 *  -------------------------------------                                      *
 *   Amsterdam Density Functional  (ADF)         2017                          *
 *  -------------------------------------                                      *
 *                                               r61155 2017-09-11             *
 *                                                                             *
 *                                                                             *
 *                              =================                              *
 *                              |               |                              *
 *                              |     A D F     |                              *
 *                              |               |                              *
 *                              =================                              *
 *                                                                             *
 *                                                                             *
 *   Online information and documentation:  https://www.scm.com/support/       *
 *   E-mail:  support@scm.com   info@scm.com                                   *
 *                                                                             *
 *   Scientific publications using ADF results must be properly referenced     *
 *   See the User Manuals (or the web site) for recommended citations          *
 *   The terms and conditions of the End User License Agreement apply to       *
 *   the use of ADF, https://www.scm.com/license-terms/                        *
 *                                                                             *
 ***********************  x86_64_linux_intel / openmpi  ************************
 
 Licensed to: Prof. Pere Miro / University of South Dakota, Department of Chemistry / Vermillion / SD / USA
 SCM User ID: u19501
  
 ADF 2017  RunTime: May30-2018 15:57:16  Nodes: 1  Procs: 1

 Temporary files are created in /tmp/15011/kid_0.by91IR

 Hydrogen (TZP)



 ===========================
 A T T A C H E D   F I L E S
 ===========================
  
 CREATE - Data File:    TZP-H
                        Hydrogen (TZP)
 Core Potentials:
         file : t12.rel



 ===============================
 M O D E L   P A R A M E T E R S
 ===============================
  
 DENSITY FUNCTIONAL POTENTIAL (scf)
    LDA:                               PW92                                    == Not Default ==
    Gradient Corrections:              PBEc PBEx                               == Not Default ==

 SPIN  (restricted / unrestr.)
    Molecule:                          Restricted                               

 OTHER ASPECTS
    Relativistic Corrections:          scalar (ZORA,MAPA)                      == Not Default ==

    Nuclear Charge Density Model:      Point Charge Nuclei                      
    Core Treatment:                    Frozen Orbital(s)                        

    Hyperfine or Zeeman Interaction:   ---                                      



 =====================================
 S Y M M E T R Y ,   E L E C T R O N S
 =====================================
  
 Symmetry: ATOM

 Irreducible Representations, including subspecies
 -------------------------------------------------
 S
 P:x  P:y  P:z
 D:z2  D:x2-y2  D:xy  D:xz  D:yz
 F:z3  F:z  F:xyz  F:z2x  F:z2y  F:x  F:y


 Configuration of Valence Electrons
 ==================================

          Occupation Numbers
          -------------------------------------------------
 S        1
 P        0
 D        0
 F        0
          -------------------------------------------------

 Total:   1

 Net Charge: 0 (Nuclei minus Electrons)

 Preset values for MO occupations will be applied through SCF cycle no. 1000000
 Thereafter, the program will assign electrons to MOs that are spatially
 similar to the occupied MOs in a "reference" cycle ("KeepOrbitals").
 The reference cycle is always the PREVIOUS cycle: it will evolve with
 the SCF procedure.



 ================================
 (Slater-type)  F U N C T I O N S  ***  (Basis and Fit)  ***
 ================================
  

 Atom Type    1  (H)
 ==============

 Valence Basis Sets:   4
 -----------------------
   1 S    0.690000
   1 S    0.920000
   1 S    1.580000
   2 P    1.250000


 BAS: List of all Elementary Cartesian Basis Functions
 =====================================================

 The numbering in the list below (to the right of the function characteristics) is referred
 to in print-outs of MO eigenvectors and Mulliken populations in the BAS representation
 (as contrasted to the SFO representation).

 Notes:
 1. The functions are characterized by a polynomial prefactor (powers of x,y,z and r) and
    an exponential decay factor alpha.
 2. Since the basis sets are specific for an atom TYPE, the individual functions occur on
    all atoms of that type.
 3. The word 'Core' in the left margin signals that it is a Core Function (CF) : not a
    degree of freedom in the valence set, but only used to ensure orthogonalization of
    the other valence basis functions on the frozen Core Orbitals.


 (power of) X  Y  Z  R     Alpha  on Atom
            ==========     =====     ==========

 H                                    1
                                  ---------------------------------------------------------------------------
            0  0  0  0     0.690      1
            0  0  0  0     0.920      2
            0  0  0  0     1.580      3
            1  0  0  0     1.250      4
            0  1  0  0     1.250      5
            0  0  1  0     1.250      6

 Total number of charge fitting functions (nprimf)        50
 Total number of Cartesian basis functions (naos)          6
 Total number of Cartesian core functions  (ncos)          0



 BAS: List of all Elementary Cartesian Basis Functions
 =====================================================

 The numbering in the list below (to the right of the function characteristics) is referred
 to in print-outs of MO eigenvectors and Mulliken populations in the BAS representation
 (as contrasted to the SFO representation).

 Notes:
 1. The functions are characterized by a polynomial prefactor (powers of x,y,z and r) and
    an exponential decay factor alpha.
 2. Since the basis sets are specific for an atom TYPE, the individual functions occur on
    all atoms of that type.
 3. The word 'Core' in the left margin signals that it is a Core Function (CF) : not a
    degree of freedom in the valence set, but only used to ensure orthogonalization of
    the other valence basis functions on the frozen Core Orbitals.


 (power of) X  Y  Z  R     Alpha  on Atom
            ==========     =====     ==========

 H                                    1
                                  ---------------------------------------------------------------------------
            0  0  0  0     0.690      1
            0  0  0  0     0.920      2
            0  0  0  0     1.580      3
            1  0  0  0     1.250      4
            0  1  0  0     1.250      5
            0  0  1  0     1.250      6
1
 ***************************************************************************************************



                                              ***********************
                                              *  T E C H N I C A L  *
                                              ***********************
  



 =============================================================
 P A R A L L E L I Z A T I O N  and  V E C T O R I Z A T I O N
 =============================================================
  
 Nr of parallel processes:                                1
 Maximum vector length in NumInt loops:                 128

 IO buffersize (Mb):                                     64.000000



 =====================
 S C F   U P D A T E S
 =====================
  
 Max. nr. of cycles:                               300
 Convergence criterion:                              0.0000000100
   secondary criterion:                              0.0000000100

 Mix parameter (when DIIS does not apply):           0.2000000000
 Special mix parameter for the first cycle:          1.0000000000
 Mixed ADIIS+DIIS will be used
    Max number of expansion vectors:                10
    Pure ADIIS when Max([F,P]) is above              0.1000000000
    Pure DIIS when Max([F,P]) is below               0.0010000000
 Automatic ElectronSmearing (in case of problematic SCF convergence) disabled



 =================
 P R E C I S I O N  ***  (General: NumInt, NeglectFunctionTails, ...)  ***
 =================
  

 NumInt:           Target precision:                12.0000000000
 -------           Initial precision:               10.0000000000
                   Min. precision (optimization):   10.0000000000

 Neglect Functions:          Basis functions:        0.1000000000E-13
 ------------------          Fit functions:          0.1000000000E-13



 ===========================
 L I N E A R   S C A L I N G
 ===========================
  

 Cut-off radii density fit:                        0.1000000000E-97
 Overlap cut-off criterion AO matrix elements:     0.1000000000E-97
 Cut-offs for Coulomb potential and fitted density:0.1000000000E-97
 Cut-off criterion for Coulomb multipole terms:    0.1000000000E-97
 Progressive Convergence parameter:                 0.000000000    
1
 ***************************************************************************************************



                                            ***************************
                                            *  C O M P U T A T I O N  *
                                            ***************************
  

 Number of elements of the density matrix on this node (used, total):        21        21



 ===========================================
 Numerical Integration : Fuzzy Cells (Becke)
 ===========================================
  
 Becke grid quality: VERYGOOD       
  
 Lebedev angular grid order:             min:  13 max:  41
 Nr. of radial points:                   min:  64 max:  64

 Total nr. of points:         64
 Nr. of blocks:                1
 Block length:                64
 Nr. of dummy points:          0


 Test of Precision of the Numerical Integration Grid
 ===================================================

 Integral of the Total Core Density:                   0.00000000000000



 ========================
 Density Fitting (zlmFit)
 ========================
  
 ZlmFit Fit Quality: VERYGOOD       
  
 Max L-expansion:                        min:   0 max:   0
 Nr. of radial interpolation points:     min: 120 max: 120



 =====
 S C F  ***  ScaSCF  ***
 =====
  

 CYCLE    1
 SCF Error: norm([F,P])=      0.000000000000, max([F,P])=      0.000000000000
 orbitals (Q,E):
 ---------------
 S :1...3            ( 1.00    -0.5000)  ( 0.00    -0.0900)  ( 0.00     1.2936)
 P :1...1            ( 0.00     0.1562)

 CYCLE    2
 SCF Error: norm([F,P])=      0.031537872292, max([F,P])=      0.030110494752
 orbitals (Q,E):
 ---------------
 S :1...2            ( 1.00    -0.2218)  ( 0.00     0.1019)
 P :1...1            ( 0.00     0.4189)

 CYCLE    3
  SDIIS (wt  0.000):  0.1996  0.8004
 A-DIIS (wt  1.000):  0.0000  1.0000
  DIIS coefficients:  0.0000  1.0000
 SCF Error: norm([F,P])=      0.008617989401, max([F,P])=      0.008343029399
 orbitals (Q,E):
 ---------------
 S :1...2            ( 1.00    -0.2422)  ( 0.00     0.0889)
 P :1...1            ( 0.00     0.4024)

 CYCLE    4
  SDIIS (wt  0.993):  0.1666  0.8334
 A-DIIS (wt  0.007):  0.0000  1.0000
  DIIS coefficients:  0.1654  0.8346
 SCF Error: norm([F,P])=      0.001732350026, max([F,P])=      0.001718616814
 orbitals (Q,E):
 ---------------
 S :1...2            ( 1.00    -0.2385)  ( 0.00     0.0908)
 P :1...1            ( 0.00     0.4054)

 CYCLE    5
  SDIIS (wt  1.000):  0.0236  0.9764
  DIIS coefficients:  0.0236  0.9764
 SCF Error: norm([F,P])=      0.000043673449, max([F,P])=      0.000039769875
 orbitals (Q,E):
 ---------------
 S :1...2            ( 1.00    -0.2386)  ( 0.00     0.0908)
 P :1...1            ( 0.00     0.4054)

 CYCLE    6
  SDIIS (wt  1.000): -0.0577  1.0577
  DIIS coefficients: -0.0577  1.0577
 SCF Error: norm([F,P])=      0.000002383805, max([F,P])=      0.000002158128
 orbitals (Q,E):
 ---------------
 S :1...2            ( 1.00    -0.2386)  ( 0.00     0.0908)
 P :1...1            ( 0.00     0.4054)

 CYCLE    7
  SDIIS (wt  1.000): -0.0032  1.0032
  DIIS coefficients: -0.0032  1.0032
 SCF Error: norm([F,P])=      0.000000007721, max([F,P])=      0.000000007228
 orbitals (Q,E):
 ---------------
 S :1...2            ( 1.00    -0.2386)  ( 0.00     0.0908)
 P :1...1            ( 0.00     0.4054)

 SCF CONVERGED

 CYCLE    8
1
 ***************************************************************************************************



                                                *******************
                                                *  R E S U L T S  *
                                                *******************
  
 *** Setting up for NEW gradients in Focky
 *** Using FIT density in Focky

 Scaled ZORA Orbital Energies, per Irrep and Spin:
 =================================================
                        Occup              E (au)              E (eV)       Diff (eV) with prev. cycle
                        -----      --------------------        ------       --------------------------
 S
               1        1.000     -0.23861775226993E+00        -6.493               7.43E-09
               2        0.000      0.90791701709264E-01         2.471
               3        0.000      0.15217530108909E+01        41.409
 P
               1        0.000      0.40537978060393E+00        11.031


 Partially Occupied:
               1 S                -0.23861775226993E+00
  
 LUMO :        2 S                 0.90791701709264E-01
  


 Orbital Energies, all Irreps
 ========================================

 Irrep        no.  (spin)   Occup              E (au)                E (eV)
 ---------------------------------------------------------------------------
 S             1             1.00       -0.23861775226993E+00        -6.4931
 S             2             0.00        0.90791701709264E-01         2.4706
 P             1             0.00        0.40537978060393E+00        11.0309
 S             3             0.00        0.15217530108909E+01        41.4090


 All Electron Calculation, thus no Orbital Energies of the Core Orbitals are calculated



 =======================================
 M U L L I K E N   P O P U L A T I O N S
 =======================================
  
 The survey below gives for each atom:
 a) the total charge (Z minus electrons)
 b) the net spin polarization (nr of electrons spin-A minus spin-B)
 c) for each spin the atomic electron valence density (integrated) per L-value.

 Atom              Charge    Spin density          S         P         D         F
 ----              ------    ------------       ------    ------    ------    ------
 1 H              -0.0000                       1.0000    0.0000    0.0000    0.0000

 Populations of individual BAS functions
 ----------------------------------------
 1 H            0.2104  0.6788  0.1107  0.0000  0.0000  0.0000

 Gross Charges per Atom (Z minus electrons)
 ==========================================
            -0.0000
 Net Total: -0.00000000



 =======================================================================
 Electrostatic potential at the Nuclei due to electrons and other nuclei
 =======================================================================
  
         Atom                  Potential
         ----                  ---------
     1)   H                   0.94468022
 
 
 ========================
 No memory problems found
 ========================
 
 Maximum number of active allocate calls:         311
 
 *******************************************************************************

                             A D F   E X I T
 NORMAL TERMINATION



 =================
 Timing Statistics
 =================
  
 Total Used :                     CPU=        0.55      System=        0.05     Elapsed=        0.60

 Calls  Section                     ( Mean, Percentage )
 ---------------------------------------------------------------------------------------------------
     3  ><      ................      0.00    0.23             0.00    0.54             0.00    0.31
     1  INIT    ................      0.02    3.77             0.03   61.49             0.05    8.55
     1  GEOMET  ................      0.01    2.39             0.00    6.30             0.02    2.70
     1  INPUTA  ................      0.00    0.85             0.00    0.00             0.00    0.72
     1  MAINSY  ................      0.01    2.04             0.00    3.64             0.01    2.28
     1  SYMFIT  ................      0.00    0.50             0.00    0.04             0.00    0.42
     1  CORORT  ................      0.00    0.16             0.00    0.00             0.00    0.15
     1  SYMORB  ................      0.00    0.17             0.00    0.00             0.00    0.16
     1  CLSMAT  ................      0.01    1.28             0.00    0.00             0.01    1.19
     1  ORTHON  ................      0.00    0.39             0.00    1.71             0.00    0.55
     1  GENPT   ................      0.02    3.71             0.00    0.00             0.02    3.38
     1  PTBAS   ................      0.01    1.99             0.00    1.80             0.01    2.02
     8  FOCKY   ................      0.04   64.32             0.00    6.59             0.04   59.26
     8  FOCKTR  ................      0.00    1.96             0.00    0.01             0.00    1.77
     8  SDIIS   ................      0.00    4.42             0.00    9.89             0.00    5.02
     1  COREPS  ................      0.03    5.33             0.00    2.03             0.03    5.02
     1  POPAN   ................      0.01    1.24             0.00    0.00             0.01    1.16
     1  DEBYE   ................      0.00    0.24             0.00    0.00             0.00    0.25
     1  EXIT PROCEDURE .........      0.03    5.01             0.00    5.97             0.03    5.08


 Currently Open Files (EXIT00)
 ====================

 Unit    Access Format  Status   Type       Ident (file)
 -------------------------------------------------------
   3      SEQ    FORM   TRANSP  NORMAL      LOGFILE
                                          ( logfile )


 Buffered I/O statistics
 =======================
 Memory available:                     67108864
 Number of records fitting in memory:     16131
 Input :   0.2% of                        15246  *4k bytes
 Output:  18.1% of                          917  *4k bytes
 Records from serial files evicted:           0
                    others evicted:           0
 Hash table lookups:      39097 with          0 conflicts (  0.00%)

 ***************************************************************************************************
 (LOGFILE)
 <May30-2018> <15:57:16>  DIRAC 2017  RunTime: May30-2018 15:57:16  Nodes: 1  Procs: 1
 <May30-2018> <15:57:16>  NORMAL TERMINATION
 <May30-2018> <15:57:16>  END
 <May30-2018> <15:57:16>  ADF 2017  RunTime: May30-2018 15:57:16  Nodes: 1  Procs: 1
 <May30-2018> <15:57:16>  Hydrogen (TZP)
 <May30-2018> <15:57:16>  RunType   : CREATE
 <May30-2018> <15:57:16>  Net Charge: 0 (Nuclei minus Electrons)
 <May30-2018> <15:57:16>  Symmetry  : ATOM
  Coordinates
    Atom         X           Y           Z   (Angstrom)
    1.H         0.000000    0.000000    0.000000
 <May30-2018> <15:57:16>  >>>> CORORT
 <May30-2018> <15:57:16>  >>>> CLSMAT
 <May30-2018> <15:57:16>  >>>> ORTHON
 <May30-2018> <15:57:16>  >>>> GENPT
 <May30-2018> <15:57:16>  Block Length=  64
 <May30-2018> <15:57:16>  >>>> PTBAS
 <May30-2018> <15:57:16>  >>>> CYCLE
 <May30-2018> <15:57:16>              |Error|         MaxErr       Wt(A-DIIS)
 <May30-2018> <15:57:16>      1      0.00000000      0.00000000
 <May30-2018> <15:57:16>      2      0.03153787      0.03011049
 <May30-2018> <15:57:16>      3      0.00861799      0.00834303    100.0
 <May30-2018> <15:57:16>      4      0.00173235      0.00171862      0.7
 <May30-2018> <15:57:16>      5      0.00004367      0.00003977      0.0
 <May30-2018> <15:57:16>      6      0.00000238      0.00000216      0.0
 <May30-2018> <15:57:16>      7      0.00000001      0.00000001      0.0
 <May30-2018> <15:57:16>  SCF converged
 <May30-2018> <15:57:16>      8      0.00000000      0.00000000      0.0
 <May30-2018> <15:57:16>  >>>> POPAN
 <May30-2018> <15:57:16>  >>>> DEBYE
 <May30-2018> <15:57:16>  NORMAL TERMINATION
 <May30-2018> <15:57:16>  END

 *******************************************************************************
 *                                                                             *
 *  -------------------------------------                                      *
 *   Amsterdam Density Functional  (ADF)         2017                          *
 *  -------------------------------------                                      *
 *                                               r61155 2017-09-11             *
 *                                                                             *
 *                                                                             *
 *                            =====================                            *
 *                            |                   |                            *
 *                            |     D I R A C     |                            *
 *                            |                   |                            *
 *                            =====================                            *
 *                                                                             *
 *                                                                             *
 *   Online information and documentation:  https://www.scm.com/support/       *
 *   E-mail:  support@scm.com   info@scm.com                                   *
 *                                                                             *
 *   Scientific publications using ADF results must be properly referenced     *
 *   See the User Manuals (or the web site) for recommended citations          *
 *   The terms and conditions of the End User License Agreement apply to       *
 *   the use of ADF, https://www.scm.com/license-terms/                        *
 *                                                                             *
 ***********************  x86_64_linux_intel / openmpi  ************************
 
 Licensed to: Prof. Pere Miro / University of South Dakota, Department of Chemistry / Vermillion / SD / USA
 SCM User ID: u19501
  
 DIRAC 2017  RunTime: May30-2018 15:57:16  Nodes: 1  Procs: 1

 Temporary files are created in /tmp/15011/kid_0.THrwSC

1
 URANIUM ATOM 4f CORE RELATIVISTIC, Point Nuc, A and c from l
 N J RN H ZN XION ANUC CLIGHT
 5000   29100.00000000197.36710137 92.00000000  0.00000000  238.050783  0.1370360E+03
  PH   PHI     EPS        DEL        DELRVR
  0.30  0.30     2500.00  0.00001000  0.00001000
 IDIRC  NC1  NDEBU NPRIN  IPUN IRCOR IWCOR
   1   300     0     0     0     0    16
   XALPHA      XLATTER      RNUC
  0.70000000  0.00000000  0.00000000 Point Charge
   XN   XL   XJ      XE          XZ      XDELL
  1.0  0.0  0.5   -2600.000       2.000     0.00000
  2.0  0.0  0.5    -425.000       2.000     0.00000
  2.0  1.0  0.5    -425.000       2.000     0.00000
  2.0  1.0  1.5    -425.000       4.000     0.00000
  3.0  0.0  0.5    -100.000       2.000     0.00000
  3.0  1.0  0.5    -100.000       2.000     0.00000
  3.0  1.0  1.5    -100.000       4.000     0.00000
  3.0  2.0  1.5     -80.000       4.000     0.00000
  3.0  2.0  2.5     -80.000       6.000     0.00000
  4.0  0.0  0.5     -22.000       2.000     0.00000
  4.0  1.0  0.5     -20.000       2.000     0.00000
  4.0  1.0  1.5     -20.000       4.000     0.00000
  4.0  2.0  1.5     -11.000       4.000     0.00000
  4.0  2.0  2.5     -11.000       6.000     0.00000
  4.0  3.0  2.5      -1.500       6.000     0.00000
  4.0  3.0  3.5      -1.500       8.000     0.00000
  5.0  0.0  0.5      -3.000       2.000     0.00000
  5.0  1.0  0.5      -2.200       2.000     0.00000
  5.0  1.0  1.5      -2.200       4.000     0.00000
  5.0  2.0  1.5      -1.000       4.000     0.00000
  5.0  2.0  2.5      -1.000       6.000     0.00000
  6.0  0.0  0.5      -0.750       2.000     0.00000
  6.0  1.0  0.5      -0.750       2.000     0.00000
  6.0  1.0  1.5      -0.500       4.000     0.00000
  5.0  3.0  2.5      -0.100       3.000     0.00000
  5.0  3.0  3.5      -0.100       0.000     0.00000
  6.0  2.0  1.5      -0.100       1.000     0.00000
  6.0  2.0  2.5      -0.100       0.000     0.00000
  7.0  0.0  0.5      -0.250       2.000     0.00000
 ICORP=  0  NPCL=  0  DEMP=0.00  PEPS=0.000000
 R(1)=  0.1000000E-08 D=  0.1005080E+01 RNUC=  0.0000000E+00
 TOO MANY NODES 6.0 5.0 3.0 2.5 -0.1261728E+00 -0.1208378E+00 -0.1155029E+00
 TOO MANY NODES 6.0 5.0 3.0 2.5 -0.1170229E+00 -0.1131853E+00 -0.1093478E+00
 TOO MANY NODES 6.0 5.0 3.0 3.5 -0.8710344E-01 -0.8352277E-01 -0.7994209E-01
 TOO MANY NODES 6.0 5.0 3.0 2.5 -0.1135243E+00 -0.1080838E+00 -0.1026434E+00
 TOO MANY NODES 6.0 5.0 3.0 3.5 -0.8366713E-01 -0.7843793E-01 -0.7320874E-01
 TOO MANY NODES 6.0 5.0 3.0 3.5 -0.7582333E-01 -0.7498301E-01 -0.7414268E-01
 DE TOO LARGE 5.0 3.0 3.5 -0.8352222E-01 -0.7888210E-01 -0.7424197E-01  0.1466962E-01
 TOO MANY NODES 6.0 5.0 3.0 2.5 -0.1061471E+00 -0.1036176E+00 -0.1010880E+00
 TOO MANY NODES 6.0 5.0 3.0 3.5 -0.7888210E-01 -0.7475642E-01 -0.7063074E-01
 converged at cycle   53  DENSITY AVERAGING    0.0503
  MAXIMUM ERROR IN R.V(R) IS   0.49809899E-05
 Q,EY,EV,EZ,ESUM,ETOT,RHO  0.920000E+02 -0.636993E+03 -0.522229E+05 -0.725498E+05 -0.177591E+05 -0.280818E+05  0.358229E-07


 DIRAC CALCULATION
1                    URANIUM ATOM 4f CORE RELATIVISTIC, Point Nuc, A and c from libtc


 EXCHANGE COEFFICIENT=  0.7000000           TAIL CORRECTION=  0.           NUCLEAR RADIUS=  0.000E+00
0                       ORBITAL    N    L    J     ELECTRONS     EIGENVALUE                DELTA OF EIGENV.

                          1S1/2  1.0  0.0  0.5     2.000       -0.4255570E+04                 0.3049741E-04
                          2S1/2  2.0  0.0  0.5     2.000       -0.7950122E+03                 0.2800079E-04
                          2P1/2  2.0  1.0  0.5     2.000       -0.7667058E+03                 0.2859174E-04
                          2P3/2  2.0  1.0  1.5     4.000       -0.6259608E+03                 0.2801575E-04
                          3S1/2  3.0  0.0  0.5     2.000       -0.2006922E+03                 0.2311534E-04
                          3P1/2  3.0  1.0  0.5     2.000       -0.1878207E+03                 0.2357693E-04
                          3P3/2  3.0  1.0  1.5     4.000       -0.1553848E+03                 0.2265893E-04
                          3D3/2  3.0  2.0  1.5     4.000       -0.1349867E+03                 0.2375477E-04
                          3D5/2  3.0  2.0  2.5     6.000       -0.1284024E+03                 0.2347626E-04
                          4S1/2  4.0  0.0  0.5     2.000       -0.5109161E+02                 0.1584544E-04
                          4P1/2  4.0  1.0  0.5     2.000       -0.4529574E+02                 0.1594271E-04
                          4P3/2  4.0  1.0  1.5     4.000       -0.3682640E+02                 0.1471822E-04
                          4D3/2  4.0  2.0  1.5     4.000       -0.2758990E+02                 0.1491229E-04
                          4D5/2  4.0  2.0  2.5     6.000       -0.2603194E+02                 0.1456610E-04
                          4F5/2  4.0  3.0  2.5     6.000       -0.1387857E+02                 0.1498740E-04
                          4F7/2  4.0  3.0  3.5     8.000       -0.1347219E+02                 0.1481585E-04
                          5S1/2  5.0  0.0  0.5     2.000       -0.1132701E+02                 0.8357219E-05
                          5P1/2  5.0  1.0  0.5     2.000       -0.9073465E+01                 0.8073865E-05
                          5P3/2  5.0  1.0  1.5     4.000       -0.7057725E+01                 0.7245237E-05
                          5D3/2  5.0  2.0  1.5     4.000       -0.3764380E+01                 0.6514200E-05
                          5D5/2  5.0  2.0  2.5     6.000       -0.3465944E+01                 0.6299168E-05
                          6S1/2  6.0  0.0  0.5     2.000       -0.1719825E+01                 0.3534413E-05
                          6P1/2  6.0  1.0  0.5     2.000       -0.1069359E+01                 0.3091253E-05
                          6P3/2  6.0  1.0  1.5     4.000       -0.7409575E+00                 0.2589566E-05
                          5F5/2  5.0  3.0  2.5     3.000       -0.1032941E+00                 0.3904174E-05
                          5F7/2  5.0  3.0  3.5     0.000       -0.7283949E-01                 0.3769863E-05
                          6D3/2  6.0  2.0  1.5     1.000       -0.7103330E-01                 0.1292171E-05
                          6D5/2  6.0  2.0  2.5     0.000       -0.5372781E-01                 0.1158602E-05
                          7S1/2  7.0  0.0  0.5     2.000       -0.1339890E+00                 0.7985880E-06


                                        NUCLEAR CHARGE=   92.000000
                            INTEGRAL OF CHARGE DENSITY=   92.000000
                           SUM OF THE ORBITAL ENERGIES= -17759.1033
                                          TOTAL ENERGY= -28081.8111
                                        KINETIC ENERGY=  34463.7935
                             NUCLEAR ATTRACTION ENERGY= -72549.8160
                             ELECTRON REPULSION ENERGY=  10481.9560
                                       EXCHANGE ENERGY=   -477.7445

 *******************************************************************************

                             D I R A C   E X I T
 NORMAL TERMINATION



 =================
 Timing Statistics
 =================
  
 Total Used :                     CPU=        0.69      System=        0.03     Elapsed=        0.75

 Calls  Section                     ( Mean, Percentage )
 ---------------------------------------------------------------------------------------------------
     2  ><      ................      0.00    0.00             0.00    0.02             0.00    0.00
     1  EXIT PROCEDURE .........      0.69  100.00             0.03   99.98             0.75  100.00


 Currently Open Files (EXIT00)
 ====================

 Unit    Access Format  Status   Type       Ident (file)
 -------------------------------------------------------
   3      SEQ    FORM   TRANSP  NORMAL      LOGFILE
                                          ( logfile )


 Buffered I/O statistics
 =======================
 Memory available:                     67108864
 Number of records fitting in memory:     16131
 Input : 100.0% of                            0  *4k bytes
 Output: 100.0% of                            0  *4k bytes
 Records from serial files evicted:           0
                    others evicted:           0
 Hash table lookups:          0 with          0 conflicts (100.00%)

Create U   file=TZP-U.4f
XC
GGA PBE
End
relativistic ZORA
Corepotentials t12.rel
End Input

 *******************************************************************************
 *                                                                             *
 *  -------------------------------------                                      *
 *   Amsterdam Density Functional  (ADF)         2017                          *
 *  -------------------------------------                                      *
 *                                               r61155 2017-09-11             *
 *                                                                             *
 *                                                                             *
 *                              =================                              *
 *                              |               |                              *
 *                              |     A D F     |                              *
 *                              |               |                              *
 *                              =================                              *
 *                                                                             *
 *                                                                             *
 *   Online information and documentation:  https://www.scm.com/support/       *
 *   E-mail:  support@scm.com   info@scm.com                                   *
 *                                                                             *
 *   Scientific publications using ADF results must be properly referenced     *
 *   See the User Manuals (or the web site) for recommended citations          *
 *   The terms and conditions of the End User License Agreement apply to       *
 *   the use of ADF, https://www.scm.com/license-terms/                        *
 *                                                                             *
 ***********************  x86_64_linux_intel / openmpi  ************************
 
 Licensed to: Prof. Pere Miro / University of South Dakota, Department of Chemistry / Vermillion / SD / USA
 SCM User ID: u19501
  
 ADF 2017  RunTime: May30-2018 15:57:17  Nodes: 1  Procs: 1

 Temporary files are created in /tmp/15011/kid_0.pbESir

 Uranium (TZP, 4f frozen)



 ===========================
 A T T A C H E D   F I L E S
 ===========================
  
 CREATE - Data File:    TZP-U.4f
                        Uranium (TZP, 4f frozen)
 Core Potentials:
         file : t12.rel



 ===============================
 M O D E L   P A R A M E T E R S
 ===============================
  
 DENSITY FUNCTIONAL POTENTIAL (scf)
    LDA:                               PW92                                    == Not Default ==
    Gradient Corrections:              PBEc PBEx                               == Not Default ==

 SPIN  (restricted / unrestr.)
    Molecule:                          Restricted                               

 OTHER ASPECTS
    Relativistic Corrections:          scalar (ZORA,MAPA)                      == Not Default ==

    Nuclear Charge Density Model:      Point Charge Nuclei                      
    Core Treatment:                    Frozen Orbital(s)                        

    Hyperfine or Zeeman Interaction:   ---                                      



 =====================================
 S Y M M E T R Y ,   E L E C T R O N S
 =====================================
  
 Symmetry: ATOM

 Irreducible Representations, including subspecies
 -------------------------------------------------
 S
 P:x  P:y  P:z
 D:z2  D:x2-y2  D:xy  D:xz  D:yz
 F:z3  F:z  F:xyz  F:z2x  F:z2y  F:x  F:y


 Configuration of Valence Electrons
 ==================================

          Occupation Numbers
          -------------------------------------------------
 S        3*2
 P        2*6
 D        10 1
 F        3
          -------------------------------------------------

 Total:   32

 Net Charge: 0 (Nuclei minus Electrons)

 Preset values for MO occupations will be applied through SCF cycle no. 1000000
 Thereafter, the program will assign electrons to MOs that are spatially
 similar to the occupied MOs in a "reference" cycle ("KeepOrbitals").
 The reference cycle is always the PREVIOUS cycle: it will evolve with
 the SCF procedure.



 ================================
 (Slater-type)  F U N C T I O N S  ***  (Basis and Fit)  ***
 ================================
  

 Atom Type    1  (U)
 ==============

 Valence Basis Sets:  32
 -----------------------
   1 S   70.000000
   2 S   44.250000
   3 S   26.350000
   4 S   14.750000
   2 P   44.050000
   3 P   24.800000
   4 P   13.900000
   3 D   27.700000
   4 D   13.600000
   4 F   15.150000
   5 S   10.450000
   5 S    7.250000
   1 S  245.000000
   6 S    5.000000
   6 S    3.300000
   7 S    2.350000
   7 S    1.550000
   7 S    1.020000
   5 P    8.650000
   5 P    6.000000
   6 P    4.450000
   6 P    3.000000
   6 P    2.100000
   6 D    2.900000
   5 D    7.250000
   5 D    4.650000
   6 D    1.600000
   6 D    0.880000
   5 F    5.800000
   5 F    3.000000
   5 F    1.390000
   7 P    1.550000

 Frozen Core Shells
 ------------------
    S:  4
    P:  3
    D:  2
    F:  1


 BAS: List of all Elementary Cartesian Basis Functions
 =====================================================

 The numbering in the list below (to the right of the function characteristics) is referred
 to in print-outs of MO eigenvectors and Mulliken populations in the BAS representation
 (as contrasted to the SFO representation).

 Notes:
 1. The functions are characterized by a polynomial prefactor (powers of x,y,z and r) and
    an exponential decay factor alpha.
 2. Since the basis sets are specific for an atom TYPE, the individual functions occur on
    all atoms of that type.
 3. The word 'Core' in the left margin signals that it is a Core Function (CF) : not a
    degree of freedom in the valence set, but only used to ensure orthogonalization of
    the other valence basis functions on the frozen Core Orbitals.


 (power of) X  Y  Z  R     Alpha  on Atom
            ==========     =====     ==========

 U                                    1
                                  ---------------------------------------------------------------------------
    Core    0  0  0  0    70.000      1
    Core    0  0  0  1    44.250      2
    Core    0  0  0  2    26.350      3
    Core    0  0  0  3    14.750      4
    Core    1  0  0  0    44.050      5
    Core    0  1  0  0    44.050      6
    Core    0  0  1  0    44.050      7
    Core    1  0  0  1    24.800      8
    Core    0  1  0  1    24.800      9
    Core    0  0  1  1    24.800     10
    Core    1  0  0  2    13.900     11
    Core    0  1  0  2    13.900     12
    Core    0  0  1  2    13.900     13
    Core    2  0  0  0    27.700     14
    Core    1  1  0  0    27.700     15
    Core    1  0  1  0    27.700     16
    Core    0  2  0  0    27.700     17
    Core    0  1  1  0    27.700     18
    Core    0  0  2  0    27.700     19
    Core    2  0  0  1    13.600     20
    Core    1  1  0  1    13.600     21
    Core    1  0  1  1    13.600     22
    Core    0  2  0  1    13.600     23
    Core    0  1  1  1    13.600     24
    Core    0  0  2  1    13.600     25
    Core    3  0  0  0    15.150     26
    Core    2  1  0  0    15.150     27
    Core    2  0  1  0    15.150     28
    Core    1  2  0  0    15.150     29
    Core    1  1  1  0    15.150     30
    Core    1  0  2  0    15.150     31
    Core    0  3  0  0    15.150     32
    Core    0  2  1  0    15.150     33
    Core    0  1  2  0    15.150     34
    Core    0  0  3  0    15.150     35
            0  0  0  4    10.450     36
            0  0  0  4     7.250     37
            0  0  0  0   245.000     38
            0  0  0  5     5.000     39
            0  0  0  5     3.300     40
            0  0  0  6     2.350     41
            0  0  0  6     1.550     42
            0  0  0  6     1.020     43
            1  0  0  3     8.650     44
            0  1  0  3     8.650     45
            0  0  1  3     8.650     46
            1  0  0  3     6.000     47
            0  1  0  3     6.000     48
            0  0  1  3     6.000     49
            1  0  0  4     4.450     50
            0  1  0  4     4.450     51
            0  0  1  4     4.450     52
            1  0  0  4     3.000     53
            0  1  0  4     3.000     54
            0  0  1  4     3.000     55
            1  0  0  4     2.100     56
            0  1  0  4     2.100     57
            0  0  1  4     2.100     58
            2  0  0  3     2.900     59
            1  1  0  3     2.900     60
            1  0  1  3     2.900     61
            0  2  0  3     2.900     62
            0  1  1  3     2.900     63
            0  0  2  3     2.900     64
            2  0  0  2     7.250     65
            1  1  0  2     7.250     66
            1  0  1  2     7.250     67
            0  2  0  2     7.250     68
            0  1  1  2     7.250     69
            0  0  2  2     7.250     70
            2  0  0  2     4.650     71
            1  1  0  2     4.650     72
            1  0  1  2     4.650     73
            0  2  0  2     4.650     74
            0  1  1  2     4.650     75
            0  0  2  2     4.650     76
            2  0  0  3     1.600     77
            1  1  0  3     1.600     78
            1  0  1  3     1.600     79
            0  2  0  3     1.600     80
            0  1  1  3     1.600     81
            0  0  2  3     1.600     82
            2  0  0  3     0.880     83
            1  1  0  3     0.880     84
            1  0  1  3     0.880     85
            0  2  0  3     0.880     86
            0  1  1  3     0.880     87
            0  0  2  3     0.880     88
            3  0  0  1     5.800     89
            2  1  0  1     5.800     90
            2  0  1  1     5.800     91
            1  2  0  1     5.800     92
            1  1  1  1     5.800     93
            1  0  2  1     5.800     94
            0  3  0  1     5.800     95
            0  2  1  1     5.800     96
            0  1  2  1     5.800     97
            0  0  3  1     5.800     98
            3  0  0  1     3.000     99
            2  1  0  1     3.000    100
            2  0  1  1     3.000    101
            1  2  0  1     3.000    102
            1  1  1  1     3.000    103
            1  0  2  1     3.000    104
            0  3  0  1     3.000    105
            0  2  1  1     3.000    106
            0  1  2  1     3.000    107
            0  0  3  1     3.000    108
            3  0  0  1     1.390    109
            2  1  0  1     1.390    110
            2  0  1  1     1.390    111
            1  2  0  1     1.390    112
            1  1  1  1     1.390    113
            1  0  2  1     1.390    114
            0  3  0  1     1.390    115
            0  2  1  1     1.390    116
            0  1  2  1     1.390    117
            0  0  3  1     1.390    118
            1  0  0  5     1.550    119
            0  1  0  5     1.550    120
            0  0  1  5     1.550    121

 Total number of charge fitting functions (nprimf)       389
 Total number of Cartesian basis functions (naos)        121
 Total number of Cartesian core functions  (ncos)         35



 BAS: List of all Elementary Cartesian Basis Functions
 =====================================================

 The numbering in the list below (to the right of the function characteristics) is referred
 to in print-outs of MO eigenvectors and Mulliken populations in the BAS representation
 (as contrasted to the SFO representation).

 Notes:
 1. The functions are characterized by a polynomial prefactor (powers of x,y,z and r) and
    an exponential decay factor alpha.
 2. Since the basis sets are specific for an atom TYPE, the individual functions occur on
    all atoms of that type.
 3. The word 'Core' in the left margin signals that it is a Core Function (CF) : not a
    degree of freedom in the valence set, but only used to ensure orthogonalization of
    the other valence basis functions on the frozen Core Orbitals.


 (power of) X  Y  Z  R     Alpha  on Atom
            ==========     =====     ==========

 U                                    1
                                  ---------------------------------------------------------------------------
    Core    0  0  0  0    70.000      1
    Core    0  0  0  1    44.250      2
    Core    0  0  0  2    26.350      3
    Core    0  0  0  3    14.750      4
    Core    1  0  0  0    44.050      5
    Core    0  1  0  0    44.050      6
    Core    0  0  1  0    44.050      7
    Core    1  0  0  1    24.800      8
    Core    0  1  0  1    24.800      9
    Core    0  0  1  1    24.800     10
    Core    1  0  0  2    13.900     11
    Core    0  1  0  2    13.900     12
    Core    0  0  1  2    13.900     13
    Core    2  0  0  0    27.700     14
    Core    1  1  0  0    27.700     15
    Core    1  0  1  0    27.700     16
    Core    0  2  0  0    27.700     17
    Core    0  1  1  0    27.700     18
    Core    0  0  2  0    27.700     19
    Core    2  0  0  1    13.600     20
    Core    1  1  0  1    13.600     21
    Core    1  0  1  1    13.600     22
    Core    0  2  0  1    13.600     23
    Core    0  1  1  1    13.600     24
    Core    0  0  2  1    13.600     25
    Core    3  0  0  0    15.150     26
    Core    2  1  0  0    15.150     27
    Core    2  0  1  0    15.150     28
    Core    1  2  0  0    15.150     29
    Core    1  1  1  0    15.150     30
    Core    1  0  2  0    15.150     31
    Core    0  3  0  0    15.150     32
    Core    0  2  1  0    15.150     33
    Core    0  1  2  0    15.150     34
    Core    0  0  3  0    15.150     35
            0  0  0  4    10.450     36
            0  0  0  4     7.250     37
            0  0  0  0   245.000     38
            0  0  0  5     5.000     39
            0  0  0  5     3.300     40
            0  0  0  6     2.350     41
            0  0  0  6     1.550     42
            0  0  0  6     1.020     43
            1  0  0  3     8.650     44
            0  1  0  3     8.650     45
            0  0  1  3     8.650     46
            1  0  0  3     6.000     47
            0  1  0  3     6.000     48
            0  0  1  3     6.000     49
            1  0  0  4     4.450     50
            0  1  0  4     4.450     51
            0  0  1  4     4.450     52
            1  0  0  4     3.000     53
            0  1  0  4     3.000     54
            0  0  1  4     3.000     55
            1  0  0  4     2.100     56
            0  1  0  4     2.100     57
            0  0  1  4     2.100     58
            2  0  0  3     2.900     59
            1  1  0  3     2.900     60
            1  0  1  3     2.900     61
            0  2  0  3     2.900     62
            0  1  1  3     2.900     63
            0  0  2  3     2.900     64
            2  0  0  2     7.250     65
            1  1  0  2     7.250     66
            1  0  1  2     7.250     67
            0  2  0  2     7.250     68
            0  1  1  2     7.250     69
            0  0  2  2     7.250     70
            2  0  0  2     4.650     71
            1  1  0  2     4.650     72
            1  0  1  2     4.650     73
            0  2  0  2     4.650     74
            0  1  1  2     4.650     75
            0  0  2  2     4.650     76
            2  0  0  3     1.600     77
            1  1  0  3     1.600     78
            1  0  1  3     1.600     79
            0  2  0  3     1.600     80
            0  1  1  3     1.600     81
            0  0  2  3     1.600     82
            2  0  0  3     0.880     83
            1  1  0  3     0.880     84
            1  0  1  3     0.880     85
            0  2  0  3     0.880     86
            0  1  1  3     0.880     87
            0  0  2  3     0.880     88
            3  0  0  1     5.800     89
            2  1  0  1     5.800     90
            2  0  1  1     5.800     91
            1  2  0  1     5.800     92
            1  1  1  1     5.800     93
            1  0  2  1     5.800     94
            0  3  0  1     5.800     95
            0  2  1  1     5.800     96
            0  1  2  1     5.800     97
            0  0  3  1     5.800     98
            3  0  0  1     3.000     99
            2  1  0  1     3.000    100
            2  0  1  1     3.000    101
            1  2  0  1     3.000    102
            1  1  1  1     3.000    103
            1  0  2  1     3.000    104
            0  3  0  1     3.000    105
            0  2  1  1     3.000    106
            0  1  2  1     3.000    107
            0  0  3  1     3.000    108
            3  0  0  1     1.390    109
            2  1  0  1     1.390    110
            2  0  1  1     1.390    111
            1  2  0  1     1.390    112
            1  1  1  1     1.390    113
            1  0  2  1     1.390    114
            0  3  0  1     1.390    115
            0  2  1  1     1.390    116
            0  1  2  1     1.390    117
            0  0  3  1     1.390    118
            1  0  0  5     1.550    119
            0  1  0  5     1.550    120
            0  0  1  5     1.550    121
1
 ***************************************************************************************************



                                              ***********************
                                              *  T E C H N I C A L  *
                                              ***********************
  



 =============================================================
 P A R A L L E L I Z A T I O N  and  V E C T O R I Z A T I O N
 =============================================================
  
 Nr of parallel processes:                                1
 Maximum vector length in NumInt loops:                 128

 IO buffersize (Mb):                                     64.000000



 =====================
 S C F   U P D A T E S
 =====================
  
 Max. nr. of cycles:                               300
 Convergence criterion:                              0.0000000100
   secondary criterion:                              0.0000000100

 Mix parameter (when DIIS does not apply):           0.2000000000
 Special mix parameter for the first cycle:          1.0000000000
 Mixed ADIIS+DIIS will be used
    Max number of expansion vectors:                10
    Pure ADIIS when Max([F,P]) is above              0.1000000000
    Pure DIIS when Max([F,P]) is below               0.0010000000
 Automatic ElectronSmearing (in case of problematic SCF convergence) disabled



 =================
 P R E C I S I O N  ***  (General: NumInt, NeglectFunctionTails, ...)  ***
 =================
  

 NumInt:           Target precision:                12.0000000000
 -------           Initial precision:               10.0000000000
                   Min. precision (optimization):   10.0000000000

 Neglect Functions:          Basis functions:        0.1000000000E-13
 ------------------          Fit functions:          0.1000000000E-13



 ===========================
 L I N E A R   S C A L I N G
 ===========================
  

 Cut-off radii density fit:                        0.1000000000E-97
 Overlap cut-off criterion AO matrix elements:     0.1000000000E-97
 Cut-offs for Coulomb potential and fitted density:0.1000000000E-97
 Cut-off criterion for Coulomb multipole terms:    0.1000000000E-97
 Progressive Convergence parameter:                 0.000000000    
1
 ***************************************************************************************************



                                            ***************************
                                            *  C O M P U T A T I O N  *
                                            ***************************
  

 Number of elements of the density matrix on this node (used, total):      7381      7381



 ===========================================
 Numerical Integration : Fuzzy Cells (Becke)
 ===========================================
  
 Becke grid quality: VERYGOOD       
  
 Lebedev angular grid order:             min:  13 max:  41
 Nr. of radial points:                   min: 179 max: 179

 Total nr. of points:        179
 Nr. of blocks:                2
 Block length:                90
 Nr. of dummy points:          1


 Test of Precision of the Numerical Integration Grid
 ===================================================

 Integral of the Total Core Density:                  59.99999992874480
 Relative Error:                                      -1.188E-09



 ========================
 Density Fitting (zlmFit)
 ========================
  
 ZlmFit Fit Quality: VERYGOOD       
  
 Max L-expansion:                        min:   0 max:   0
 Nr. of radial interpolation points:     min: 400 max: 400



 =====
 S C F  ***  ScaSCF  ***
 =====
  

 CYCLE    1
 SCF Error: norm([F,P])=      0.000000000000, max([F,P])=      0.000000000000
 orbitals (Q,E):
 ---------------
 S :1...8            ( 2.00   -41.2611)  ( 2.00   -24.6775)  ( 2.00   -16.3400)  ( 0.00   -11.6656)
                     ( 0.00    -8.3638)  ( 0.00    -5.6859)  ( 0.00    -3.6561)  ( 0.00  4503.8968)
 P :1...6            ( 6.00   -36.6794)  ( 6.00   -22.5539)  ( 0.00   -15.2813)  ( 0.00   -10.9027)
                     ( 0.00    -7.7629)  ( 0.00    -5.2511)
 D :1...5            (10.00   -31.6473)  ( 1.00   -19.4880)  ( 0.00   -12.1804)  ( 0.00    -7.2064)
                     ( 0.00    -3.9871)
 F :1...3            ( 3.00   -25.7745)  ( 0.00   -14.4893)  ( 0.00    -7.4234)

 CYCLE    2
  SDIIS (wt  0.000):  1.0000  0.0000
 A-DIIS (wt  1.000):  0.1165  0.8835
  DIIS coefficients:  0.1165  0.8835
 SCF Error: norm([F,P])=     26.654378827873, max([F,P])=      7.886015523791
 orbitals (Q,E):
 ---------------
 S :1...4            ( 2.00    -8.3945)  ( 2.00    -1.7731)  ( 2.00    -0.7567)  ( 0.00    -0.4345)
 P :1...3            ( 6.00    -5.2214)  ( 6.00    -1.2292)  ( 0.00    -0.5907)
 D :1...3            (10.00    -2.1087)  ( 1.00    -0.7104)  ( 0.00    -0.4030)
 F :1...2            ( 3.00    -0.5142)  ( 0.00     0.1127)

 CYCLE    3
  SDIIS (wt  0.000):  0.3349  0.6651
 A-DIIS (wt  1.000):  0.1579  0.8421
  DIIS coefficients:  0.1579  0.8421
 SCF Error: norm([F,P])=     16.838246031843, max([F,P])=      3.579788925717
 orbitals (Q,E):
 ---------------
 S :1...4            ( 2.00   -14.2123)  ( 2.00    -3.2175)  ( 2.00    -0.4804)  ( 0.00    -0.0225)
 P :1...3            ( 6.00   -10.3104)  ( 6.00    -2.0218)  ( 0.00    -0.1959)
 D :1...3            (10.00    -6.1514)  ( 1.00    -0.7689)  ( 0.00     0.0127)
 F :1...2            ( 3.00    -1.9975)  ( 0.00     0.1024)

 CYCLE    4
  SDIIS (wt  0.000): -0.0966  0.2849  0.8118
 A-DIIS (wt  1.000):  0.0000  0.2423  0.7577
  DIIS coefficients:  0.0000  0.2423  0.7577
 SCF Error: norm([F,P])=      8.334193275849, max([F,P])=      1.801865802069
 orbitals (Q,E):
 ---------------
 S :1...4            ( 2.00   -10.4280)  ( 2.00    -1.3662)  ( 2.00    -0.0740)  ( 0.00     0.0647)
 P :1...3            ( 6.00    -6.7885)  ( 6.00    -0.5752)  ( 0.00     0.0417)
 D :1...3            (10.00    -2.9812)  ( 1.00     0.0163)  ( 0.00     0.1126)
 F :1...2            ( 3.00     0.2110)  ( 0.00     0.4742)

 CYCLE    5
  SDIIS (wt  0.000): -0.0164 -0.0840  0.2372  0.8632
 A-DIIS (wt  1.000):  0.0000  0.0000  0.2143  0.7857
  DIIS coefficients:  0.0000  0.0000  0.2143  0.7857
 SCF Error: norm([F,P])=      3.509384133412, max([F,P])=      0.678472829801
 orbitals (Q,E):
 ---------------
 S :1...4            ( 2.00   -11.9673)  ( 2.00    -2.2013)  ( 2.00    -0.2818)  ( 0.00    -0.0124)
 P :1...3            ( 6.00    -8.2397)  ( 6.00    -1.2355)  ( 0.00    -0.1039)
 D :1...3            (10.00    -4.3018)  ( 1.00    -0.3113)  ( 0.00     0.0173)
 F :1...2            ( 3.00    -0.6204)  ( 0.00     0.1878)

 CYCLE    6
  SDIIS (wt  0.000):  0.0036 -0.0234 -0.0662  0.3410  0.7451
 A-DIIS (wt  1.000):  0.0000  0.0000  0.0000  0.2471  0.7529
  DIIS coefficients:  0.0000  0.0000  0.0000  0.2471  0.7529
 SCF Error: norm([F,P])=      1.775482677207, max([F,P])=      0.365500637628
 orbitals (Q,E):
 ---------------
 S :1...4            ( 2.00   -11.0758)  ( 2.00    -1.6428)  ( 2.00    -0.1312)  ( 0.00     0.0328)
 P :1...3            ( 6.00    -7.3832)  ( 6.00    -0.7785)  ( 0.00    -0.0063)
 D :1...3            (10.00    -3.5000)  ( 1.00    -0.0559)  ( 0.00     0.0665)
 F :1...2            ( 3.00    -0.0232)  ( 0.00     0.3305)

 CYCLE    7
  SDIIS (wt  0.000): -0.0004  0.0001  0.0062 -0.1142  0.1212  0.9871
 A-DIIS (wt  1.000):  0.0000  0.0000  0.0000  0.0000  0.0583  0.9417
  DIIS coefficients:  0.0000  0.0000  0.0000  0.0000  0.0583  0.9417
 SCF Error: norm([F,P])=      0.658091457941, max([F,P])=      0.117509620467
 orbitals (Q,E):
 ---------------
 S :1...4            ( 2.00   -11.4829)  ( 2.00    -1.8554)  ( 2.00    -0.1782)  ( 0.00     0.0120)
 P :1...3            ( 6.00    -7.7658)  ( 6.00    -0.9438)  ( 0.00    -0.0410)
 D :1...3            (10.00    -3.8470)  ( 1.00    -0.1323)  ( 0.00     0.0419)
 F :1...2            ( 3.00    -0.2509)  ( 0.00     0.2718)

 CYCLE    8
  SDIIS (wt  0.000):  0.0001  0.0007 -0.0037 -0.0311 -0.0217  0.5685  0.4873
 A-DIIS (wt  1.000):  0.0000  0.0000  0.0000  0.0000  0.0000  0.5160  0.4840
  DIIS coefficients:  0.0000  0.0000  0.0000  0.0000  0.0000  0.5160  0.4840
 SCF Error: norm([F,P])=      0.701419966589, max([F,P])=      0.117491547438
 orbitals (Q,E):
 ---------------
 S :1...4            ( 2.00   -11.2698)  ( 2.00    -1.7432)  ( 2.00    -0.1541)  ( 0.00     0.0204)
 P :1...3            ( 6.00    -7.5654)  ( 6.00    -0.8562)  ( 0.00    -0.0249)
 D :1...3            (10.00    -3.6650)  ( 1.00    -0.0904)  ( 0.00     0.0518)
 F :1...2            ( 3.00    -0.1281)  ( 0.00     0.2990)

 CYCLE    9
  SDIIS (wt  0.971): -0.0001 -0.0002  0.0013  0.0007 -0.0193  0.0372  0.0466  0.9337
 A-DIIS (wt  0.029):  0.0000  0.0000  0.0000  0.0000  0.0000  0.0000  0.0000  1.0000
  DIIS coefficients: -0.0001 -0.0002  0.0013  0.0007 -0.0187  0.0361  0.0453  0.9356
 SCF Error: norm([F,P])=      0.018479534620, max([F,P])=      0.003862915624
 orbitals (Q,E):
 ---------------
 S :1...4            ( 2.00   -11.2631)  ( 2.00    -1.7384)  ( 2.00    -0.1533)  ( 0.00     0.0204)
 P :1...3            ( 6.00    -7.5587)  ( 6.00    -0.8523)  ( 0.00    -0.0247)
 D :1...3            (10.00    -3.6585)  ( 1.00    -0.0888)  ( 0.00     0.0519)
 F :1...2            ( 3.00    -0.1232)  ( 0.00     0.3000)

 CYCLE   10
  SDIIS (wt  1.000):  0.0000  0.0000 -0.0001 -0.0002  0.0010 -0.0009 -0.0016 -0.0161  1.0179
  DIIS coefficients:  0.0000  0.0000 -0.0001 -0.0002  0.0010 -0.0009 -0.0016 -0.0161  1.0179
 SCF Error: norm([F,P])=      0.001103623304, max([F,P])=      0.000183981365
 orbitals (Q,E):
 ---------------
 S :1...4            ( 2.00   -11.2637)  ( 2.00    -1.7389)  ( 2.00    -0.1535)  ( 0.00     0.0203)
 P :1...3            ( 6.00    -7.5593)  ( 6.00    -0.8527)  ( 0.00    -0.0248)
 D :1...3            (10.00    -3.6590)  ( 1.00    -0.0890)  ( 0.00     0.0518)
 F :1...2            ( 3.00    -0.1237)  ( 0.00     0.2998)

 CYCLE   11
  SDIIS (wt  1.000):  0.0000 -0.0000  0.0000  0.0000  0.0000 -0.0006 -0.0003 -0.0019  0.1254  0.8773
  DIIS coefficients:  0.0000 -0.0000  0.0000  0.0000  0.0000 -0.0006 -0.0003 -0.0019  0.1254  0.8773
 SCF Error: norm([F,P])=      0.000084524714, max([F,P])=      0.000021565296
 orbitals (Q,E):
 ---------------
 S :1...4            ( 2.00   -11.2636)  ( 2.00    -1.7388)  ( 2.00    -0.1535)  ( 0.00     0.0203)
 P :1...3            ( 6.00    -7.5592)  ( 6.00    -0.8527)  ( 0.00    -0.0248)
 D :1...3            (10.00    -3.6590)  ( 1.00    -0.0890)  ( 0.00     0.0518)
 F :1...2            ( 3.00    -0.1236)  ( 0.00     0.2998)

 CYCLE   12
  SDIIS (wt  1.000): -0.0000  0.0000  0.0000  0.0000 -0.0000 -0.0000 -0.0001 -0.0035  0.0147  0.9889
  DIIS coefficients: -0.0000  0.0000  0.0000  0.0000 -0.0000 -0.0000 -0.0001 -0.0035  0.0147  0.9889
 SCF Error: norm([F,P])=      0.000002526888, max([F,P])=      0.000000528341
 orbitals (Q,E):
 ---------------
 S :1...4            ( 2.00   -11.2636)  ( 2.00    -1.7388)  ( 2.00    -0.1535)  ( 0.00     0.0203)
 P :1...3            ( 6.00    -7.5592)  ( 6.00    -0.8527)  ( 0.00    -0.0248)
 D :1...3            (10.00    -3.6590)  ( 1.00    -0.0890)  ( 0.00     0.0518)
 F :1...2            ( 3.00    -0.1236)  ( 0.00     0.2998)

 CYCLE   13
  SDIIS (wt  1.000): -0.0000 -0.0001  0.0009  0.0000  0.9992
  DIIS coefficients: -0.0000 -0.0001  0.0009  0.0000  0.9992
 SCF Error: norm([F,P])=      0.000000082507, max([F,P])=      0.000000016825
 orbitals (Q,E):
 ---------------
 S :1...4            ( 2.00   -11.2636)  ( 2.00    -1.7388)  ( 2.00    -0.1535)  ( 0.00     0.0203)
 P :1...3            ( 6.00    -7.5592)  ( 6.00    -0.8527)  ( 0.00    -0.0248)
 D :1...3            (10.00    -3.6590)  ( 1.00    -0.0890)  ( 0.00     0.0518)
 F :1...2            ( 3.00    -0.1236)  ( 0.00     0.2998)

 CYCLE   14
  SDIIS (wt  1.000):  0.0000 -0.0000 -0.0000 -0.0087  1.0087
  DIIS coefficients:  0.0000 -0.0000 -0.0000 -0.0087  1.0087
 SCF Error: norm([F,P])=      0.000000000947, max([F,P])=      0.000000000180
 orbitals (Q,E):
 ---------------
 S :1...4            ( 2.00   -11.2636)  ( 2.00    -1.7388)  ( 2.00    -0.1535)  ( 0.00     0.0203)
 P :1...3            ( 6.00    -7.5592)  ( 6.00    -0.8527)  ( 0.00    -0.0248)
 D :1...3            (10.00    -3.6590)  ( 1.00    -0.0890)  ( 0.00     0.0518)
 F :1...2            ( 3.00    -0.1236)  ( 0.00     0.2998)

 SCF CONVERGED

 CYCLE   15
1
 ***************************************************************************************************



                                                *******************
                                                *  R E S U L T S  *
                                                *******************
  
 *** Setting up for NEW gradients in Focky
 *** Using FIT density in Focky

 Scaled ZORA Orbital Energies, per Irrep and Spin:
 =================================================
                        Occup              E (au)              E (eV)       Diff (eV) with prev. cycle
                        -----      --------------------        ------       --------------------------
 S
               1        2.000     -0.11263598947908E+02      -306.498               3.38E-10
               2        2.000     -0.17388147949234E+01       -47.316               2.77E-10
               3        2.000     -0.15346662410759E+00        -4.176               1.02E-10
               4        0.000      0.20313353623081E-01         0.553
               5        0.000      0.30985278913318E+00         8.432
               6        0.000      0.16340021433543E+01        44.463
               7        0.000      0.10787993981757E+02       293.556
               8        0.000      0.45311962989236E+04    123300.125
 P
               1        6.000     -0.75592279791213E+01      -205.697               3.26E-10
               2        6.000     -0.85268828901839E+00       -23.203               2.48E-10
               3        0.000     -0.24816283874045E-01        -0.675
               4        0.000      0.37617078026100E+00        10.236
               5        0.000      0.18349952200022E+01        49.933
               6        0.000      0.83639877346140E+01       227.596
 D
               1       10.000     -0.36589641407546E+01       -99.565               3.16E-10
               2        1.000     -0.89001764686666E-01        -2.422               1.48E-10
               3        0.000      0.51811681568831E-01         1.410
               4        0.000      0.42535064965293E+00        11.574
               5        0.000      0.33922720275799E+01        92.308
 F
               1        3.000     -0.12359705497562E+00        -3.363               2.71E-10
               2        0.000      0.29980294816974E+00         8.158
               3        0.000      0.21739070922396E+01        59.155


 Partially Occupied:
               2 D                -0.89001764686666E-01
               1 F                -0.12359705497562E+00
  
 HOMO :        3 S                -0.15346662410759E+00
 LUMO :        3 P                -0.24816283874045E-01
  


 Orbital Energies, all Irreps
 ========================================

 Irrep        no.  (spin)   Occup              E (au)                E (eV)
 ---------------------------------------------------------------------------
 S             1             2.00       -0.11263598947908E+02      -306.4981
 P             1             6.00       -0.75592279791213E+01      -205.6971
 D             1            10.00       -0.36589641407546E+01       -99.5655
 S             2             2.00       -0.17388147949234E+01       -47.3156
 P             2             6.00       -0.85268828901839E+00       -23.2028
 S             3             2.00       -0.15346662410759E+00        -4.1760
 F             1             3.00       -0.12359705497562E+00        -3.3632
 D             2             1.00       -0.89001764686666E-01        -2.4219
 P             3             0.00       -0.24816283874045E-01        -0.6753
 S             4             0.00        0.20313353623081E-01         0.5528
 D             3             0.00        0.51811681568831E-01         1.4099
 F             2             0.00        0.29980294816974E+00         8.1581
 S             5             0.00        0.30985278913318E+00         8.4315
 P             4             0.00        0.37617078026100E+00        10.2361
 D             4             0.00        0.42535064965293E+00        11.5744
 S             6             0.00        0.16340021433543E+01        44.4635
 P             5             0.00        0.18349952200022E+01        49.9328
 F             3             0.00        0.21739070922396E+01        59.1550
 D             5             0.00        0.33922720275799E+01        92.3084
 P             6             0.00        0.83639877346140E+01       227.5957
 S             7             0.00        0.10787993981757E+02       293.5563
 S             8             0.00        0.45311962989236E+04    123300.1248


 Scaled ZORA Orbital Energies of the Core Orbitals:
 ==================================================

 (Note that the atoms are grouped by atomtype, see the labels, and may hence NOT be in input order)

 AtomType  Orbital  Atom                   E (au)                        E (eV)
 --------  -------  ----           --------------------        ----------------
 U           1S        1          -0.42478474815762E+04             -115589.811
             2S        1          -0.79373718708539E+03              -21598.688
             3S        1          -0.20057914776100E+03               -5458.036
             4S        1          -0.51197213629992E+02               -1393.147
             2P        1          -0.65894122404905E+03              -17930.703
             3P        1          -0.16313768534217E+03               -4439.202
             4P        1          -0.38988555102331E+02               -1060.933
             3D        1          -0.13106658911463E+03               -3566.503
             4D        1          -0.26803403350270E+02                -729.358
             4F        1          -0.13763035613087E+02                -374.511



 =======================================
 M U L L I K E N   P O P U L A T I O N S
 =======================================
  
 The survey below gives for each atom:
 a) the total charge (Z minus electrons)
 b) the net spin polarization (nr of electrons spin-A minus spin-B)
 c) for each spin the atomic electron valence density (integrated) per L-value.

 Atom              Charge    Spin density          S         P         D         F
 ----              ------    ------------       ------    ------    ------    ------
 1 U              -0.0000                       6.0000   12.0000   11.0000    3.0000

 Populations of individual BAS functions
 ----------------------------------------
 1 U           -0.0038 -0.0042  0.0073 -0.0456 -0.0034 -0.0034 -0.0034  0.0049  0.0049  0.0049
                0.0165  0.0165  0.0165  0.0091  0.0136  0.0136  0.0091  0.0136  0.0091  0.0399
                0.0599  0.0599  0.0399  0.0599  0.0399  0.0050  0.0100  0.0100  0.0100  0.0125
                0.0100  0.0050  0.0100  0.0100  0.0050  1.2355  0.8866  0.0006  1.4700  0.5518
                0.8242  0.9408  0.1370  1.4883  1.4883  1.4883  0.5370  0.5370  0.5370  0.9851
                0.9851  0.9851  0.8819  0.8819  0.8819  0.0848  0.0848  0.0848  0.0604  0.0906
                0.0906  0.0604  0.0906  0.0604  0.8926  1.3389  1.3389  0.8926  1.3389  0.8926
                0.3944  0.5916  0.5916  0.3944  0.5916  0.3944  0.0612  0.0919  0.0919  0.0612
                0.0919  0.0612  0.0090  0.0135  0.0135  0.0090  0.0135  0.0090  0.0663  0.1325
                0.1325  0.1325  0.1657  0.1325  0.0663  0.1325  0.1325  0.0663  0.0890  0.1780
                0.1780  0.1780  0.2225  0.1780  0.0890  0.1780  0.1780  0.0890  0.0112  0.0223
                0.0223  0.0223  0.0279  0.0223  0.0112  0.0223  0.0223  0.0112  0.0048  0.0048
                0.0048

 Gross Charges per Atom (Z minus electrons)
 ==========================================
            -0.0000
 Net Total: -0.00000000



 =======================================================================
 Electrostatic potential at the Nuclei due to electrons and other nuclei
 =======================================================================
  
         Atom                  Potential
         ----                  ---------
     1)   U                 787.10274975
 
 
 ========================
 No memory problems found
 ========================
 
 Maximum number of active allocate calls:         492
 
 *******************************************************************************

                             A D F   E X I T
 NORMAL TERMINATION



 =================
 Timing Statistics
 =================
  
 Total Used :                     CPU=        2.89      System=        0.07     Elapsed=        2.97

 Calls  Section                     ( Mean, Percentage )
 ---------------------------------------------------------------------------------------------------
     3  ><      ................      0.00    0.04             0.00    1.77             0.00    0.07
     1  INIT    ................      0.02    0.70             0.02   32.14             0.04    1.46
     1  GEOMET  ................      0.02    0.55             0.00    6.79             0.02    0.70
     1  INPUTA  ................      0.00    0.17             0.00    0.61             0.01    0.19
     1  MAINSY  ................      0.04    1.29             0.00    3.91             0.04    1.36
     1  SYMFIT  ................      0.00    0.04             0.00    1.54             0.00    0.07
     1  CORORT  ................      0.00    0.15             0.00    1.61             0.01    0.19
     1  SYMORB  ................      0.00    0.02             0.00    2.51             0.00    0.07
     1  CLSMAT  ................      0.01    0.48             0.00    1.55             0.01    0.50
     1  ORTHON  ................      0.00    0.14             0.00    0.68             0.00    0.15
     1  GENPT   ................      0.07    2.40             0.00    0.30             0.07    2.35
     1  PTBAS   ................      0.02    0.64             0.00    0.00             0.02    0.63
    15  FOCKY   ................      0.16   83.90             0.00   27.59             0.16   82.44
    15  FOCKTR  ................      0.00    0.70             0.00    1.42             0.00    0.70
    15  SDIIS   ................      0.00    1.45             0.00    1.60             0.00    1.55
     1  COREPS  ................      0.16    5.39             0.00    5.83             0.16    5.39
     1  POPAN   ................      0.01    0.33             0.00    0.00             0.01    0.33
     1  DEBYE   ................      0.00    0.15             0.00    0.00             0.00    0.15
     1  EXIT PROCEDURE .........      0.04    1.49             0.01   10.15             0.05    1.69


 Currently Open Files (EXIT00)
 ====================

 Unit    Access Format  Status   Type       Ident (file)
 -------------------------------------------------------
   3      SEQ    FORM   TRANSP  NORMAL      LOGFILE
                                          ( logfile )


 Buffered I/O statistics
 =======================
 Memory available:                     67108864
 Number of records fitting in memory:     16131
 Input :   0.1% of                        34663  *4k bytes
 Output:  11.3% of                         2066  *4k bytes
 Records from serial files evicted:           0
                    others evicted:           0
 Hash table lookups:      90887 with          0 conflicts (  0.00%)

 ***************************************************************************************************
 (LOGFILE)
 <May30-2018> <15:57:16>  DIRAC 2017  RunTime: May30-2018 15:57:16  Nodes: 1  Procs: 1
 <May30-2018> <15:57:16>  NORMAL TERMINATION
 <May30-2018> <15:57:16>  END
 <May30-2018> <15:57:16>  ADF 2017  RunTime: May30-2018 15:57:16  Nodes: 1  Procs: 1
 <May30-2018> <15:57:16>  Hydrogen (TZP)
 <May30-2018> <15:57:16>  RunType   : CREATE
 <May30-2018> <15:57:16>  Net Charge: 0 (Nuclei minus Electrons)
 <May30-2018> <15:57:16>  Symmetry  : ATOM
  Coordinates
    Atom         X           Y           Z   (Angstrom)
    1.H         0.000000    0.000000    0.000000
 <May30-2018> <15:57:16>  >>>> CORORT
 <May30-2018> <15:57:16>  >>>> CLSMAT
 <May30-2018> <15:57:16>  >>>> ORTHON
 <May30-2018> <15:57:16>  >>>> GENPT
 <May30-2018> <15:57:16>  Block Length=  64
 <May30-2018> <15:57:16>  >>>> PTBAS
 <May30-2018> <15:57:16>  >>>> CYCLE
 <May30-2018> <15:57:16>              |Error|         MaxErr       Wt(A-DIIS)
 <May30-2018> <15:57:16>      1      0.00000000      0.00000000
 <May30-2018> <15:57:16>      2      0.03153787      0.03011049
 <May30-2018> <15:57:16>      3      0.00861799      0.00834303    100.0
 <May30-2018> <15:57:16>      4      0.00173235      0.00171862      0.7
 <May30-2018> <15:57:16>      5      0.00004367      0.00003977      0.0
 <May30-2018> <15:57:16>      6      0.00000238      0.00000216      0.0
 <May30-2018> <15:57:16>      7      0.00000001      0.00000001      0.0
 <May30-2018> <15:57:16>  SCF converged
 <May30-2018> <15:57:16>      8      0.00000000      0.00000000      0.0
 <May30-2018> <15:57:16>  >>>> POPAN
 <May30-2018> <15:57:16>  >>>> DEBYE
 <May30-2018> <15:57:16>  NORMAL TERMINATION
 <May30-2018> <15:57:16>  END
[...]
 <May30-2018> <15:57:16>      4      0.00173235      0.00171862      0.7
 <May30-2018> <15:57:16>      5      0.00004367      0.00003977      0.0
 <May30-2018> <15:57:16>      6      0.00000238      0.00000216      0.0
 <May30-2018> <15:57:16>      7      0.00000001      0.00000001      0.0
 <May30-2018> <15:57:16>  SCF converged
 <May30-2018> <15:57:16>      8      0.00000000      0.00000000      0.0
 <May30-2018> <15:57:16>  >>>> POPAN
 <May30-2018> <15:57:16>  >>>> DEBYE
 <May30-2018> <15:57:16>  NORMAL TERMINATION
 <May30-2018> <15:57:16>  END
 <May30-2018> <15:57:16>  DIRAC 2017  RunTime: May30-2018 15:57:16  Nodes: 1  Procs: 1
 <May30-2018> <15:57:17>  NORMAL TERMINATION
 <May30-2018> <15:57:17>  END
 <May30-2018> <15:57:17>  ADF 2017  RunTime: May30-2018 15:57:17  Nodes: 1  Procs: 1
 <May30-2018> <15:57:17>  Uranium (TZP, 4f frozen)
 <May30-2018> <15:57:17>  RunType   : CREATE
 <May30-2018> <15:57:17>  Net Charge: 0 (Nuclei minus Electrons)
 <May30-2018> <15:57:17>  Symmetry  : ATOM
  Coordinates
    Atom         X           Y           Z   (Angstrom)
    1.U         0.000000    0.000000    0.000000
 <May30-2018> <15:57:17>  >>>> CORORT
 <May30-2018> <15:57:17>  >>>> CLSMAT
 <May30-2018> <15:57:17>  >>>> ORTHON
 <May30-2018> <15:57:17>  >>>> GENPT
 <May30-2018> <15:57:17>  Block Length=  90
 <May30-2018> <15:57:17>  >>>> PTBAS
 <May30-2018> <15:57:17>  >>>> CYCLE
 <May30-2018> <15:57:18>              |Error|         MaxErr       Wt(A-DIIS)
 <May30-2018> <15:57:18>      1      0.00000000      0.00000000
 <May30-2018> <15:57:18>      2     26.65437883      7.88601552    100.0
 <May30-2018> <15:57:18>      3     16.83824603      3.57978893    100.0
 <May30-2018> <15:57:18>      4      8.33419328      1.80186580    100.0
 <May30-2018> <15:57:18>      5      3.50938413      0.67847283    100.0
 <May30-2018> <15:57:19>      6      1.77548268      0.36550064    100.0
 <May30-2018> <15:57:19>      7      0.65809146      0.11750962    100.0
 <May30-2018> <15:57:19>      8      0.70141997      0.11749155    100.0
 <May30-2018> <15:57:19>      9      0.01847953      0.00386292      2.9
 <May30-2018> <15:57:19>     10      0.00110362      0.00018398      0.0
 <May30-2018> <15:57:19>     11      0.00008452      0.00002157      0.0
 <May30-2018> <15:57:19>     12      0.00000253      0.00000053      0.0
 <May30-2018> <15:57:20>     13      0.00000008      0.00000002      0.0
 <May30-2018> <15:57:20>     14      0.00000000      0.00000000      0.0
 <May30-2018> <15:57:20>  SCF converged
 <May30-2018> <15:57:20>     15      0.00000000      0.00000000      0.0
 <May30-2018> <15:57:20>  >>>> POPAN
 <May30-2018> <15:57:20>  >>>> DEBYE
 <May30-2018> <15:57:20>  NORMAL TERMINATION
 <May30-2018> <15:57:20>  END
 <May30-2018> <15:57:20>  DIRAC 2017  RunTime: May30-2018 15:57:20  Nodes: 1  Procs: 1
 <May30-2018> <15:57:20>  NORMAL TERMINATION
 <May30-2018> <15:57:20>  END
 <May30-2018> <15:57:21>  ADF 2017  RunTime: May30-2018 15:57:21  Nodes: 1  Procs: 1
 <May30-2018> <15:57:21>  Oxygen (TZP, 1s frozen)
 <May30-2018> <15:57:21>  RunType   : CREATE
 <May30-2018> <15:57:21>  Net Charge: 0 (Nuclei minus Electrons)
 <May30-2018> <15:57:21>  Symmetry  : ATOM
  Coordinates
    Atom         X           Y           Z   (Angstrom)
    1.O         0.000000    0.000000    0.000000
 <May30-2018> <15:57:21>  >>>> CORORT
 <May30-2018> <15:57:21>  >>>> CLSMAT
 <May30-2018> <15:57:21>  >>>> ORTHON
 <May30-2018> <15:57:21>  >>>> GENPT
 <May30-2018> <15:57:21>  Block Length=  68
 <May30-2018> <15:57:21>  >>>> PTBAS
 <May30-2018> <15:57:21>  >>>> CYCLE
 <May30-2018> <15:57:21>              |Error|         MaxErr       Wt(A-DIIS)
 <May30-2018> <15:57:21>      1      0.00000000      0.00000000
 <May30-2018> <15:57:21>      2      4.56299337      2.52897111
 <May30-2018> <15:57:21>      3      2.72315525      1.79866705    100.0
 <May30-2018> <15:57:21>      4      0.28902714      0.13064862    100.0
 <May30-2018> <15:57:21>      5      0.41661509      0.23264367    100.0
 <May30-2018> <15:57:21>      6      0.01372327      0.00671904      5.8
 <May30-2018> <15:57:21>      7      0.00110365      0.00063404      0.0
 <May30-2018> <15:57:21>      8      0.00003592      0.00002026      0.0
 <May30-2018> <15:57:21>      9      0.00000033      0.00000018      0.0
 <May30-2018> <15:57:21>     10      0.00000000      0.00000000      0.0
 <May30-2018> <15:57:21>  SCF converged
 <May30-2018> <15:57:21>     11      0.00000000      0.00000000      0.0
 <May30-2018> <15:57:21>  >>>> POPAN
 <May30-2018> <15:57:21>  >>>> DEBYE
 <May30-2018> <15:57:21>  NORMAL TERMINATION
 <May30-2018> <15:57:21>  END
 <May30-2018> <15:57:22>  ADF 2017  RunTime: May30-2018 15:57:22  Nodes: 1  Procs: 8
 <May30-2018> <15:57:22>  *** (NO TITLE) ***
 <May30-2018> <15:57:22>  RunType   : GEOMETRY OPTIMIZATION
 <May30-2018> <15:57:22>  Net Charge: -8 (Nuclei minus Electrons)
 <May30-2018> <15:57:22>  Symmetry  : C(S)
 <May30-2018> <15:57:22>  >>>> FRAGM
  Coordinates in Geometry Cycle 1
    Atom         X           Y           Z   (Angstrom)
    1.U         1.718584    1.417059    2.016820
    2.O         3.387164    0.581437    2.315296
    3.O         0.105438    2.272274    1.665142
    4.U        -1.445051   -1.478271    2.202982
    5.O        -0.772382   -3.152456    2.772278
    6.O        -2.118340    0.153656    1.621961
    7.U         1.718584    1.417059   -2.016820
    8.O         3.387164    0.581437   -2.315296
    9.O         0.105438    2.272274   -1.665142
   10.U        -1.445051   -1.478271   -2.202982
   11.O        -0.772382   -3.152456   -2.772278
   12.O        -2.118340    0.153656   -1.621961
   13.O         2.523993    3.325530    2.972028
   14.O         1.891136    2.491123    4.006146
   15.O         0.774019   -0.741286    2.246787
   16.O         0.264781   -0.240744    3.531794
   17.O         1.569245    0.138233    0.000000
   18.O         2.629353    2.596661    0.000000
   19.O        -3.519276   -2.081228    2.912314
   20.O        -2.805559   -1.410752    4.023016
   21.O        -2.030332   -2.436782    0.000000
   22.O        -0.618646   -1.982913    0.000000
   23.O         0.264781   -0.240744   -3.531794
   24.O         0.774019   -0.741286   -2.246787
   25.O         1.891136    2.491123   -4.006146
   26.O         2.523993    3.325530   -2.972028
   27.O        -3.519276   -2.081228   -2.912314
   28.O        -2.805559   -1.410752   -4.023016
   29.H         2.152355    3.448462    0.000000
   30.H         0.689201   -0.294084    0.000000
 <May30-2018> <15:57:22>  >>>> CORORT
 <May30-2018> <15:57:22>  >>>> CLSMAT
 <May30-2018> <15:57:23>  >>>> ORTHON
 <May30-2018> <15:57:23>  >>>> GENPT
 <May30-2018> <15:57:23>  Block Length= 128
 <May30-2018> <15:57:23>  >>>> PTBAS
 <May30-2018> <15:57:40>  combining surface points...
 <May30-2018> <15:57:40>  combining surface points...
 <May30-2018> <15:57:40>  combining surface points...
 <May30-2018> <15:57:40>  >>>> CYCLE
 <May30-2018> <15:57:47>              |Error|         MaxErr       Wt(A-DIIS)
 <May30-2018> <15:57:47>      1     33.37639339      6.88362722
 <May30-2018> <15:57:54>      2      5.22129334      0.36488197    100.0
 <May30-2018> <15:58:00>      3     25.32380747      2.09456377    100.0
 <May30-2018> <15:58:08>      4      4.28933721      0.41087184    100.0
 <May30-2018> <15:58:16>      5      2.70959357      0.21746778    100.0
 <May30-2018> <15:58:23>      6      2.52471817      0.21461517    100.0
 <May30-2018> <15:58:30>      7      4.32944038      0.47313642    100.0
 <May30-2018> <15:58:37>      8      1.16398846      0.10616507    100.0
 <May30-2018> <15:58:44>      9      1.95301534      0.19497279    100.0
 <May30-2018> <15:58:51>     10      1.28588819      0.12336207    100.0
 <May30-2018> <15:58:59>     11      0.57581273      0.04516289     44.6
 <May30-2018> <15:59:06>     12      0.60088959      0.05549845     44.6
 <May30-2018> <15:59:13>     13      0.54617650      0.05200264     44.6
 <May30-2018> <15:59:20>     14      0.07227712      0.00622266      5.3
 <May30-2018> <15:59:28>     15      0.03530190      0.00302247      2.0
 <May30-2018> <15:59:35>     16      0.00810429      0.00079386      0.0
 <May30-2018> <15:59:42>     17      0.00347149      0.00050634      0.0
 <May30-2018> <15:59:49>     18      0.00191059      0.00021880      0.0
 <May30-2018> <15:59:56>     19      0.00065665      0.00008308      0.0
 <May30-2018> <16:00:03>     20      0.00026317      0.00002574      0.0
 <May30-2018> <16:00:10>     21      0.00015108      0.00001525      0.0
 <May30-2018> <16:00:17>     22      0.00003269      0.00000328      0.0
 <May30-2018> <16:00:24>     23      0.00006336      0.00000579      0.0
 <May30-2018> <16:00:31>     24      0.00000669      0.00000079      0.0
 <May30-2018> <16:00:32>  SCF converged
 <May30-2018> <16:00:38>     25      0.00000829      0.00000096      0.0
 <May30-2018> <16:00:39>  >>>> TOTEN
 <May30-2018> <16:00:51>  >>>> POPAN
 <May30-2018> <16:00:51>  >>>> DEBYE
 <May30-2018> <16:00:52>  >>>> ENGRAD
 <May30-2018> <16:02:05>  current energy                               -9.06696147 Hartree
 <May30-2018> <16:02:05>  energy change                      -9.06696147     0.00100000    F
 <May30-2018> <16:02:05>  constrained gradient max            0.00129558     0.00100000    F
 <May30-2018> <16:02:05>  constrained gradient rms            0.00037271     0.00066667    T
 <May30-2018> <16:02:05>  gradient max                        0.00129558
 <May30-2018> <16:02:05>  gradient rms                        0.00037271
 <May30-2018> <16:02:05>  cart. step max                      0.00186981     0.01000000    T
 <May30-2018> <16:02:05>  cart. step rms                      0.00069652     0.00666667    T
  Coordinates in Geometry Cycle 2
    Atom         X           Y           Z   (Angstrom)
    1.U         1.718829    1.417080    2.016706
    2.O         3.388255    0.582893    2.313800
    3.O         0.106039    2.273224    1.663494
    4.U        -1.445466   -1.478498    2.202679
    5.O        -0.770924   -3.151590    2.773085
    6.O        -2.118269    0.153675    1.621575
    7.U         1.718829    1.417080   -2.016706
    8.O         3.388255    0.582893   -2.313800
    9.O         0.106039    2.273224   -1.663494
   10.U        -1.445466   -1.478498   -2.202679
   11.O        -0.770924   -3.151590   -2.773085
   12.O        -2.118269    0.153675   -1.621575
   13.O         2.524555    3.325493    2.971605
   14.O         1.890534    2.491798    4.005877
   15.O         0.773616   -0.741007    2.246381
   16.O         0.264292   -0.240734    3.531428
   17.O         1.570564    0.137810    0.000000
   18.O         2.629199    2.596869    0.000000
   19.O        -3.519535   -2.081630    2.912633
   20.O        -2.805785   -1.410501    4.022867
   21.O        -2.030199   -2.437834    0.000000
   22.O        -0.618641   -1.983692    0.000000
   23.O         0.264292   -0.240734   -3.531428
   24.O         0.773616   -0.741007   -2.246381
   25.O         1.890534    2.491798   -4.005877
   26.O         2.524555    3.325493   -2.971605
   27.O        -3.519535   -2.081630   -2.912633
   28.O        -2.805785   -1.410501   -4.022867
   29.H         2.153595    3.450332    0.000000
   30.H         0.690577   -0.294832    0.000000
 <May30-2018> <16:02:05>  >>>> CORORT
 <May30-2018> <16:02:06>  >>>> CLSMAT
 <May30-2018> <16:02:06>  >>>> ORTHON
 <May30-2018> <16:02:06>  >>>> GENPT
 <May30-2018> <16:02:06>  Block Length= 128
 <May30-2018> <16:02:06>  >>>> PTBAS
 <May30-2018> <16:02:23>  combining surface points...
 <May30-2018> <16:02:23>  combining surface points...
 <May30-2018> <16:02:23>  combining surface points...
 <May30-2018> <16:02:23>  >>>> CYCLE
 <May30-2018> <16:02:29>              |Error|         MaxErr       Wt(A-DIIS)
 <May30-2018> <16:02:29>      1      0.28179814      0.02470041
 <May30-2018> <16:02:39>      2      3.21450838      0.27796502    100.0
 <May30-2018> <16:02:48>      3      1.77385180      0.18740881    100.0
 <May30-2018> <16:02:56>      4      0.65824758      0.06641836     66.1
 <May30-2018> <16:03:04>      5      6.14248682      0.59814266    100.0
 <May30-2018> <16:03:11>      6      1.45788994      0.15748317    100.0
 <May30-2018> <16:03:18>      7      4.77135901      0.51002670    100.0
 <May30-2018> <16:03:25>      8      0.60008879      0.06034404     59.9
 <May30-2018> <16:03:33>      9      1.25278525      0.12437945    100.0
 <May30-2018> <16:03:40>     10      0.57703803      0.08742262     87.3
 <May30-2018> <16:03:47>     11      0.34985524      0.03730418     36.7
 <May30-2018> <16:03:54>     12      0.24708504      0.02066155     19.9
 <May30-2018> <16:04:02>     13      0.13453733      0.01291148     12.0
 <May30-2018> <16:04:09>     14      0.03396664      0.00308075      2.1
 <May30-2018> <16:04:16>     15      0.00835738      0.00062489      0.0
 <May30-2018> <16:04:23>     16      0.00268045      0.00020762      0.0
 <May30-2018> <16:04:30>     17      0.00072843      0.00006511      0.0
 <May30-2018> <16:04:37>     18      0.00047329      0.00004844      0.0
 <May30-2018> <16:04:44>     19      0.00010890      0.00001337      0.0
 <May30-2018> <16:04:51>     20      0.00008407      0.00000886      0.0
 <May30-2018> <16:04:58>     21      0.00004677      0.00000610      0.0
 <May30-2018> <16:05:05>     22      0.00000799      0.00000065      0.0
 <May30-2018> <16:05:06>  SCF converged
 <May30-2018> <16:05:12>     23      0.00000623      0.00000065      0.0
 <May30-2018> <16:05:13>  >>>> TOTEN
 <May30-2018> <16:05:25>  >>>> POPAN
 <May30-2018> <16:05:25>  >>>> DEBYE
 <May30-2018> <16:05:26>  >>>> ENGRAD
 <May30-2018> <16:06:39>  current energy                               -9.06696183 Hartree
 <May30-2018> <16:06:39>  energy change                      -0.00000036     0.00100000    T
 <May30-2018> <16:06:39>  constrained gradient max            0.00081713     0.00100000    T
 <May30-2018> <16:06:39>  constrained gradient rms            0.00020586     0.00066667    T
 <May30-2018> <16:06:39>  gradient max                        0.00081713
 <May30-2018> <16:06:39>  gradient rms                        0.00020586
 <May30-2018> <16:06:39>  cart. step max                      0.00326600     0.01000000    T
 <May30-2018> <16:06:39>  cart. step rms                      0.00112387     0.00666667    T
 <May30-2018> <16:06:39>  GEOMETRY CONVERGED
 <May30-2018> <16:06:39>  Calculating Energy Terms for Final Geometry
  Coordinates in Geometry Cycle 2
    Atom         X           Y           Z   (Angstrom)
    1.U         1.718829    1.417080    2.016706
    2.O         3.388255    0.582893    2.313800
    3.O         0.106039    2.273224    1.663494
    4.U        -1.445466   -1.478498    2.202679
    5.O        -0.770924   -3.151590    2.773085
    6.O        -2.118269    0.153675    1.621575
    7.U         1.718829    1.417080   -2.016706
    8.O         3.388255    0.582893   -2.313800
    9.O         0.106039    2.273224   -1.663494
   10.U        -1.445466   -1.478498   -2.202679
   11.O        -0.770924   -3.151590   -2.773085
   12.O        -2.118269    0.153675   -1.621575
   13.O         2.524555    3.325493    2.971605
   14.O         1.890534    2.491798    4.005877
   15.O         0.773616   -0.741007    2.246381
   16.O         0.264292   -0.240734    3.531428
   17.O         1.570564    0.137810    0.000000
   18.O         2.629199    2.596869    0.000000
   19.O        -3.519535   -2.081630    2.912633
   20.O        -2.805785   -1.410501    4.022867
   21.O        -2.030199   -2.437834    0.000000
   22.O        -0.618641   -1.983692    0.000000
   23.O         0.264292   -0.240734   -3.531428
   24.O         0.773616   -0.741007   -2.246381
   25.O         1.890534    2.491798   -4.005877
   26.O         2.524555    3.325493   -2.971605
   27.O        -3.519535   -2.081630   -2.912633
   28.O        -2.805785   -1.410501   -4.022867
   29.H         2.153595    3.450332    0.000000
   30.H         0.690577   -0.294832    0.000000
 <May30-2018> <16:06:39>  >>>> CORORT
 <May30-2018> <16:06:39>  >>>> CLSMAT
 <May30-2018> <16:06:39>  >>>> ORTHON
 <May30-2018> <16:06:39>  >>>> GENPT
 <May30-2018> <16:06:39>  Block Length= 128
 <May30-2018> <16:06:40>  >>>> PTBAS
 <May30-2018> <16:06:56>  combining surface points...
 <May30-2018> <16:06:56>  combining surface points...
 <May30-2018> <16:06:56>  combining surface points...
 <May30-2018> <16:06:56>  >>>> CYCLE
 <May30-2018> <16:07:03>              |Error|         MaxErr       Wt(A-DIIS)
 <May30-2018> <16:07:03>      1      0.27847964      0.03771204
 <May30-2018> <16:07:12>      2      3.21613876      0.27279363    100.0
 <May30-2018> <16:07:21>      3      1.77441487      0.18136315    100.0
 <May30-2018> <16:07:29>      4      0.65846857      0.07438416     74.1
 <May30-2018> <16:07:37>      5      7.08889045      0.78096541    100.0
 <May30-2018> <16:07:44>      6      1.60532504      0.19891894    100.0
 <May30-2018> <16:07:52>      7      4.11728034      0.49442813    100.0
 <May30-2018> <16:07:59>      8      0.51469863      0.05702166     56.6
 <May30-2018> <16:08:06>      9      2.99207973      0.34568386    100.0
 <May30-2018> <16:08:14>     10      1.13984525      0.13359347    100.0
 <May30-2018> <16:08:21>     11      1.24062355      0.12374214    100.0
 <May30-2018> <16:08:28>     12      0.37788268      0.03526477     34.6
 <May30-2018> <16:08:35>     13      0.23846973      0.02614585     25.4
 <May30-2018> <16:08:43>     14      0.10782091      0.01060588      9.7
 <May30-2018> <16:08:50>     15      0.03690455      0.00400668      3.0
 <May30-2018> <16:08:57>     16      0.00637397      0.00060552      0.0
 <May30-2018> <16:09:04>     17      0.00313266      0.00047028      0.0
 <May30-2018> <16:09:11>     18      0.00107278      0.00010222      0.0
 <May30-2018> <16:09:18>     19      0.00050178      0.00004663      0.0
 <May30-2018> <16:09:25>     20      0.00029472      0.00003448      0.0
 <May30-2018> <16:09:32>     21      0.00006918      0.00000608      0.0
 <May30-2018> <16:09:39>     22      0.00004461      0.00000407      0.0
 <May30-2018> <16:09:46>     23      0.00002218      0.00000388      0.0
 <May30-2018> <16:09:53>     24      0.00001619      0.00000205      0.0
 <May30-2018> <16:10:00>     25      0.00000491      0.00000103      0.0
 <May30-2018> <16:10:07>     26      0.00000540      0.00000063      0.0
 <May30-2018> <16:10:08>  SCF converged
 <May30-2018> <16:10:14>     27      0.00000416      0.00000074      0.0
 <May30-2018> <16:10:19>  >>>> TOTEN
 <May30-2018> <16:10:57>  >>>> POPAN
 <May30-2018> <16:10:57>  >>>> DEBYE
 <May30-2018> <16:10:57>  >>>> AMETS
 <May30-2018> <16:10:58>  >>>> POPUL
 <May30-2018> <16:10:58>   Bond Energy          -9.06696183 a.u.
 <May30-2018> <16:10:58>   Bond Energy        -246.72458483 eV
 <May30-2018> <16:10:58>   Bond Energy       -5689.61       kcal/mol
 <May30-2018> <16:10:58>  >>>> ENHESS
 <May30-2018> <16:11:38>  === NUCLEUS:     1
 <May30-2018> <16:21:05>  === NUCLEUS:     2
 <May30-2018> <16:29:10>  === NUCLEUS:     5
 <May30-2018> <16:36:53>  === NUCLEUS:     6
 <May30-2018> <16:44:27>  === NUCLEUS:     7
 <May30-2018> <16:52:19>  === NUCLEUS:     8
 <May30-2018> <17:00:02>  === NUCLEUS:    13
 <May30-2018> <17:07:35>  === NUCLEUS:    14
 <May30-2018> <17:15:19>  === NUCLEUS:    15
 <May30-2018> <17:22:53>  === NUCLEUS:    16
 <May30-2018> <17:30:28>  === NUCLEUS:    17
 <May30-2018> <17:37:59>  === NUCLEUS:    18
 <May30-2018> <17:45:23>  === NUCLEUS:    19
 <May30-2018> <17:52:47>  === NUCLEUS:    20
 <May30-2018> <18:00:29>  === NUCLEUS:    21
 <May30-2018> <18:07:53>  === NUCLEUS:    22
 <May30-2018> <18:15:26>  === NUCLEUS:    29
 <May30-2018> <18:22:38>  === NUCLEUS:    30
 <May30-2018> <18:30:02>  >>>> CALC_HESS_PMAT
 <May30-2018> <18:33:22>  >>>> CALC_HESS_WMAT
 <May30-2018> <18:33:51>  NORMAL TERMINATION
 <May30-2018> <18:33:51>  END
